     109
 i =        1, E =     -1594.1015150016
 Au         1.6649000000        0.0000000000        0.0000000000
 Au         6.6598000000        0.0000000000        0.0000000000
 Au         4.1623000000        1.4419000000        0.0000000000
 Au         9.1572000000        1.4419000000        0.0000000000
 Au         6.6598000000        2.8838000000        0.0000000000
 Au        11.6546000000        2.8838000000        0.0000000000
 Au         4.1623000000        4.3256000000        0.0000000000
 Au         9.1572000000        4.3256000000        0.0000000000
 Au         6.6598000000        5.7675000000        0.0000000000
 Au        11.6546000000        5.7675000000        0.0000000000
 Au         9.1572000000        7.2094000000        0.0000000000
 Au        14.1520000000        7.2094000000        0.0000000000
 Au         3.3299000000        0.0000000000        2.3546000000
 Au         8.3247000000        0.0000000000        2.3546000000
 Au         5.8273000000        1.4419000000        2.3546000000
 Au        10.8221000000        1.4419000000        2.3546000000
 Au         8.3247000000        2.8838000000        2.3546000000
 Au        13.3195000000        2.8838000000        2.3546000000
 Au         5.8273000000        4.3256000000        2.3546000000
 Au        10.8221000000        4.3256000000        2.3546000000
 Au         8.3247000000        5.7675000000        2.3546000000
 Au        13.3195000000        5.7675000000        2.3546000000
 Au        10.8221000000        7.2094000000        2.3546000000
 Au        15.8169000000        7.2094000000        2.3546000000
 Au         0.0000000000        0.0000000000        4.7091000000
 Au         4.9948000000        0.0000000000        4.7091000000
 Au         2.4974000000        1.4419000000        4.7091000000
 Au         7.4922000000        1.4419000000        4.7091000000
 Au         4.9948000000        2.8838000000        4.7091000000
 Au         9.9896000000        2.8838000000        4.7091000000
 Au         2.4974000000        4.3256000000        4.7091000000
 Au         7.4922000000        4.3256000000        4.7091000000
 Au         4.9948000000        5.7675000000        4.7091000000
 Au         9.9896000000        5.7675000000        4.7091000000
 Au         7.4922000000        7.2094000000        4.7091000000
 Au        12.4870000000        7.2094000000        4.7091000000
  H         6.1148870519        6.3723320566        7.6415439715
  C         6.9678705500        6.1175116998        8.2801168612
  C         6.9828337687        6.2535854886        9.6520594426
  H         6.0843684619        6.6431948110       10.1233672669
  C         8.1304543830        5.9216066498       10.4144903462
  N         8.1343000906        6.1189825820       11.7875800486
  C         9.2933514791        5.4198644442        9.7817366085
  H        10.1880747763        5.1518919601       10.3353937044
  C         9.3492487619        5.2587463519        8.4161299097
  H        10.2146660571        4.8956578152        7.8505967049
  C         8.1715115571        5.6180008277        7.7210806735
  N         8.2886787322        5.5497637783        6.3946616206
  H         8.2685569096        5.6639008284        5.3946280911
  C         4.8334726843        7.9037923969       15.8574327075
  C         5.6967902736        8.9749304067       16.3007294113
  C         6.6310250324        9.2549725347       15.2277510860
  C         6.3484103835        8.3754273688       14.1231302848
  C         5.2264950874        7.5425380177       14.5074581067
  C         5.2265050241        6.1980435569       14.1262797656
  C         6.2431012700        5.6948405366       13.2407562960
  C         7.0961625377        6.6134563948       12.6125638466
  C         7.3607377449        7.8779331662       13.2818571144
  C         8.7706406883        8.1490557086       13.6199875692
  C         9.0240693859        9.0161495521       14.7167742754
  C         7.9509389904        9.5855909390       15.5137057831
  C         8.3795062354        9.6821663783       16.9015336794
  C         7.4814335031        9.4127503839       17.9419389449
  C         6.1131735201        9.0429021074       17.6328335944
  C         5.6928508506        8.0277645900       18.5811325082
  C         6.8035103490        7.7664163250       19.4795878273
  C         7.9078770628        8.6265745736       19.0886445864
  C         9.2230332897        8.1512048181       19.1593038332
  C        10.1549647919        8.4435246920       18.0851105355
  C         9.7323445183        9.1856238197       16.9739619827
  C        10.1297043320        8.7916355239       15.6326231886
  C        10.9588492143        7.6901252796       15.4625018498
  C        10.7157755980        6.7955436644       14.3624204472
  C         9.7054324092        7.0281889560       13.4100051808
  C         9.1667460687        5.8645624304       12.7233473668
  C         9.1752117018        4.6343133619       13.3984911041
  C         7.9742974094        3.8722466700       13.7965532572
  C         6.6409344571        4.3547710274       13.7242527913
  C         5.7259128199        4.0374564717       14.8302624384
  C         6.1229393936        3.2720676877       15.9317156355
  C         7.4722376534        2.7768166297       16.0053581548
  C         8.3664645579        3.0801773366       14.9741588085
  C         9.7273468685        3.4135352923       15.3316494473
  C        10.1899362897        4.4034392272       14.3936913286
  C        11.0064325842        5.4520659155       14.8214181702
  C        11.4081723694        5.5243543130       16.2128688599
  C        11.3941171728        6.9165959754       16.6100252579
  C        11.0002309101        7.2789379395       17.8988717045
  C        10.5847786244        6.2591604466       18.8474664480
  C         9.4835092804        6.7973515629       19.6263517393
  C         8.4173236906        5.9660920413       19.9947221573
  C         7.0525003654        6.4593804307       19.9203007100
  C         6.2056924803        5.3666819955       19.4732618438
  C         7.0458745926        4.1995324380       19.2633970117
  C         8.4122083083        4.5686000219       19.5942841836
  C         9.4739937547        4.0519456532       18.8426844517
  C        10.5818174837        4.9120122812       18.4616772180
  C        10.9962450482        4.5417216523       17.1196794268
  C        10.1390411468        3.4659270243       16.6665603970
  C         9.2040982117        3.1610826031       17.7282695466
  C         7.8919697657        2.8138801390       17.4000974335
  C         6.7918054254        3.3366268280       18.1870406264
  C         5.6936040949        3.6128580668       17.2797520904
  C         4.8762357534        4.7231790139       17.4947704906
  C         5.1379327446        5.6208094403       18.6040759441
  C         4.8748790104        6.9757802160       18.1507653032
  C         4.4507372422        6.9106633858       16.7655021844
  C         4.4570332007        5.5177275463       16.3589692348
  C         4.8587973948        5.1704868632       15.0675579317
     109
 i =        2, E =     -1594.1251529115
 Au         1.6649000000        0.0000000000        0.0000000000
 Au         6.6598000000        0.0000000000        0.0000000000
 Au         4.1623000000        1.4419000000        0.0000000000
 Au         9.1572000000        1.4419000000        0.0000000000
 Au         6.6598000000        2.8838000000        0.0000000000
 Au        11.6546000000        2.8838000000        0.0000000000
 Au         4.1623000000        4.3256000000        0.0000000000
 Au         9.1572000000        4.3256000000        0.0000000000
 Au         6.6598000000        5.7675000000        0.0000000000
 Au        11.6546000000        5.7675000000        0.0000000000
 Au         9.1572000000        7.2094000000        0.0000000000
 Au        14.1520000000        7.2094000000        0.0000000000
 Au         3.3299000000        0.0000000000        2.3546000000
 Au         8.3247000000        0.0000000000        2.3546000000
 Au         5.8273000000        1.4419000000        2.3546000000
 Au        10.8221000000        1.4419000000        2.3546000000
 Au         8.3247000000        2.8838000000        2.3546000000
 Au        13.3195000000        2.8838000000        2.3546000000
 Au         5.8273000000        4.3256000000        2.3546000000
 Au        10.8221000000        4.3256000000        2.3546000000
 Au         8.3247000000        5.7675000000        2.3546000000
 Au        13.3195000000        5.7675000000        2.3546000000
 Au        10.8221000000        7.2094000000        2.3546000000
 Au        15.8169000000        7.2094000000        2.3546000000
 Au         0.0000000000        0.0000000000        4.7091000000
 Au         4.9948000000        0.0000000000        4.7091000000
 Au         2.4974000000        1.4419000000        4.7091000000
 Au         7.4922000000        1.4419000000        4.7091000000
 Au         4.9948000000        2.8838000000        4.7091000000
 Au         9.9896000000        2.8838000000        4.7091000000
 Au         2.4974000000        4.3256000000        4.7091000000
 Au         7.4922000000        4.3256000000        4.7091000000
 Au         4.9948000000        5.7675000000        4.7091000000
 Au         9.9896000000        5.7675000000        4.7091000000
 Au         7.4922000000        7.2094000000        4.7091000000
 Au        12.4870000000        7.2094000000        4.7091000000
  H         6.1704918395        6.3579081545        7.6812073437
  C         6.9964623462        6.0903805115        8.3537091368
  C         6.9636903726        6.2651869403        9.7121381018
  H         6.0655312736        6.6572523900       10.1780567297
  C         8.1330624271        5.9222610348       10.4422426390
  N         8.1343022288        6.1190083653       11.8057083419
  C         9.3165199150        5.4159280536        9.8491505701
  H        10.2088972606        5.1549092760       10.4020240805
  C         9.3027714681        5.2591511769        8.4964370908
  H        10.1565518043        4.9217886598        7.8945626675
  C         8.1869120614        5.6521224935        7.7549982115
  N         8.3939296472        5.4837968310        6.4727406075
  H         8.2204251591        5.8241072118        5.4274850036
  C         4.8367923860        7.9005662920       15.8565193368
  C         5.7002522344        8.9695954025       16.3007582448
  C         6.6334080121        9.2512686828       15.2285712710
  C         6.3505003881        8.3739904278       14.1236301069
  C         5.2306845403        7.5402642960       14.5077186056
  C         5.2271819728        6.1983482227       14.1235970627
  C         6.2476613724        5.6959776442       13.2446763317
  C         7.0927413734        6.6145679450       12.6121651723
  C         7.3612839385        7.8739851105       13.2848048833
  C         8.7701493648        8.1516724204       13.6167993259
  C         9.0221033482        9.0088122244       14.7194676252
  C         7.9511199247        9.5847615024       15.5124877437
  C         8.3790793181        9.6739998149       16.8992413564
  C         7.4824936238        9.4069674121       17.9393087324
  C         6.1141638243        9.0410347759       17.6313377123
  C         5.6953852536        8.0252692717       18.5778348764
  C         6.8021552505        7.7643931477       19.4789244118
  C         7.9063536821        8.6231722839       19.0868639057
  C         9.2190334093        8.1485019352       19.1580207113
  C        10.1502021224        8.4422857965       18.0844332316
  C         9.7318397938        9.1813479095       16.9727315862
  C        10.1304416278        8.7913778068       15.6314858550
  C        10.9540144569        7.6877269164       15.4620012216
  C        10.7147899091        6.7958525424       14.3592799715
  C         9.7023624203        7.0283536492       13.4119480528
  C         9.1699868816        5.8626798337       12.7261324120
  C         9.1722780321        4.6350719292       13.3998223879
  C         7.9714783525        3.8730514271       13.7963257098
  C         6.6409063055        4.3553313118       13.7257345738
  C         5.7285112449        4.0402680887       14.8330865856
  C         6.1244136873        3.2723638262       15.9303082991
  C         7.4748552944        2.7829582469       16.0024893048
  C         8.3691657950        3.0858757531       14.9734381925
  C         9.7290588523        3.4171868676       15.3312571465
  C        10.1868399215        4.4068887050       14.3931286935
  C        11.0017556648        5.4544079458       14.8221038068
  C        11.4063977373        5.5241963823       16.2116977855
  C        11.3917544262        6.9153997621       16.6078985286
  C        10.9945651932        7.2792492862       17.8938579027
  C        10.5823724273        6.2606975456       18.8430863974
  C         9.4815415892        6.7956427904       19.6219196224
  C         8.4175081954        5.9657454750       19.9924682602
  C         7.0544737989        6.4591980448       19.9167421891
  C         6.2061113401        5.3688609787       19.4695557818
  C         7.0455545247        4.2020569401       19.2614928567
  C         8.4115156376        4.5701739201       19.5896645091
  C         9.4716063850        4.0550430477       18.8374935291
  C        10.5799343097        4.9142596574       18.4608608809
  C        10.9925769110        4.5456364205       17.1190266169
  C        10.1344881102        3.4713629389       16.6663341469
  C         9.2015527337        3.1608760769       17.7269133307
  C         7.8908851482        2.8166480581       17.3970325434
  C         6.7937261701        3.3418576416       18.1847985020
  C         5.6974489102        3.6164325312       17.2774282043
  C         4.8799801561        4.7241492597       17.4931876214
  C         5.1370166562        5.6203528713       18.6044728192
  C         4.8789879802        6.9739292024       18.1478684071
  C         4.4525613617        6.9101228359       16.7642275047
  C         4.4600726165        5.5177741291       16.3590243936
  C         4.8645857519        5.1743827781       15.0686734144
     109
 i =        3, E =     -1594.1264205756
 Au         1.6649000000        0.0000000000        0.0000000000
 Au         6.6598000000        0.0000000000        0.0000000000
 Au         4.1623000000        1.4419000000        0.0000000000
 Au         9.1572000000        1.4419000000        0.0000000000
 Au         6.6598000000        2.8838000000        0.0000000000
 Au        11.6546000000        2.8838000000        0.0000000000
 Au         4.1623000000        4.3256000000        0.0000000000
 Au         9.1572000000        4.3256000000        0.0000000000
 Au         6.6598000000        5.7675000000        0.0000000000
 Au        11.6546000000        5.7675000000        0.0000000000
 Au         9.1572000000        7.2094000000        0.0000000000
 Au        14.1520000000        7.2094000000        0.0000000000
 Au         3.3299000000        0.0000000000        2.3546000000
 Au         8.3247000000        0.0000000000        2.3546000000
 Au         5.8273000000        1.4419000000        2.3546000000
 Au        10.8221000000        1.4419000000        2.3546000000
 Au         8.3247000000        2.8838000000        2.3546000000
 Au        13.3195000000        2.8838000000        2.3546000000
 Au         5.8273000000        4.3256000000        2.3546000000
 Au        10.8221000000        4.3256000000        2.3546000000
 Au         8.3247000000        5.7675000000        2.3546000000
 Au        13.3195000000        5.7675000000        2.3546000000
 Au        10.8221000000        7.2094000000        2.3546000000
 Au        15.8169000000        7.2094000000        2.3546000000
 Au         0.0000000000        0.0000000000        4.7091000000
 Au         4.9948000000        0.0000000000        4.7091000000
 Au         2.4974000000        1.4419000000        4.7091000000
 Au         7.4922000000        1.4419000000        4.7091000000
 Au         4.9948000000        2.8838000000        4.7091000000
 Au         9.9896000000        2.8838000000        4.7091000000
 Au         2.4974000000        4.3256000000        4.7091000000
 Au         7.4922000000        4.3256000000        4.7091000000
 Au         4.9948000000        5.7675000000        4.7091000000
 Au         9.9896000000        5.7675000000        4.7091000000
 Au         7.4922000000        7.2094000000        4.7091000000
 Au        12.4870000000        7.2094000000        4.7091000000
  H         6.1863351243        6.3473089916        7.7372290264
  C         7.0234872999        6.1234942271        8.4032282856
  C         6.9677245580        6.2492499515        9.7620104720
  H         6.0870196196        6.6545731391       10.2543040651
  C         8.1275319449        5.9324985945       10.5253187511
  N         8.1283312707        6.1286140730       11.8691528913
  C         9.3073586395        5.4075172467        9.9409467656
  H        10.2005608820        5.1711602134       10.5012048682
  C         9.3041299088        5.2859728195        8.6031825269
  H        10.1257115812        4.9276202460        7.9766323003
  C         8.2024717938        5.6339972198        7.8292560648
  N         8.6005485360        5.3153804379        6.5969596136
  H         8.0896454741        6.0428203610        5.5347946596
  C         4.8403022733        7.8985071077       15.8551986481
  C         5.7007648663        8.9677771756       16.2999882913
  C         6.6349739596        9.2517541229       15.2311725428
  C         6.3472279028        8.3773876589       14.1282274474
  C         5.2288865974        7.5408131034       14.5055729330
  C         5.2242650014        6.1976892862       14.1308578463
  C         6.2329810645        5.6905134419       13.2464851581
  C         7.0824370084        6.6213487476       12.6486486167
  C         7.3581275332        7.8918815184       13.2862412387
  C         8.7707985688        8.1488380911       13.6174095268
  C         9.0236244204        9.0120164039       14.7128383905
  C         7.9531781122        9.5765264901       15.5130914642
  C         8.3776413788        9.6716347602       16.8987120960
  C         7.4816681791        9.4022075985       17.9367727955
  C         6.1153316512        9.0339235479       17.6286360355
  C         5.6955867221        8.0220834973       18.5773049715
  C         6.8031998585        7.7628106964       19.4760789161
  C         7.9074173390        8.6214361595       19.0843085042
  C         9.2178985235        8.1469627158       19.1530538880
  C        10.1483377253        8.4395145133       18.0791203764
  C         9.7292937445        9.1802072232       16.9714970860
  C        10.1244176354        8.7882856492       15.6306884251
  C        10.9581141168        7.6940987286       15.4627200102
  C        10.7194216808        6.7975915286       14.3651965967
  C         9.7168341229        7.0368056315       13.4140050070
  C         9.1762531830        5.8636143740       12.7562490734
  C         9.1808437876        4.6276426794       13.4042945272
  C         7.9733599275        3.8729953489       13.7956193807
  C         6.6444944210        4.3548198049       13.7247758102
  C         5.7309659508        4.0400789910       14.8301022035
  C         6.1264504645        3.2780492733       15.9289430627
  C         7.4739991800        2.7843574643       16.0030267557
  C         8.3654384344        3.0855727470       14.9730222591
  C         9.7236525310        3.4179754259       15.3321696991
  C        10.1920510490        4.4024938438       14.3969416382
  C        11.0035222346        5.4541745433       14.8193099969
  C        11.4021448898        5.5274865648       16.2092213635
  C        11.3884492617        6.9169465407       16.6066062263
  C        10.9911069091        7.2764049039       17.8925406927
  C        10.5772182801        6.2596163638       18.8410164341
  C         9.4789369143        6.7962031302       19.6200227222
  C         8.4147640306        5.9671235910       19.9869409883
  C         7.0521528542        6.4588341596       19.9146598263
  C         6.2056065616        5.3671642373       19.4685721517
  C         7.0463035148        4.2029010595       19.2558773913
  C         8.4103318919        4.5716210606       19.5872178812
  C         9.4705191389        4.0571754111       18.8368290300
  C        10.5754124766        4.9161417833       18.4541010386
  C        10.9917638835        4.5478247460       17.1142704871
  C        10.1359313372        3.4719624699       16.6633362124
  C         9.2020342017        3.1676041112       17.7232356706
  C         7.8933898772        2.8203498109       17.3952701902
  C         6.7944135590        3.3440905912       18.1801170847
  C         5.6976923710        3.6183573467       17.2755426040
  C         4.8810952206        4.7247302237       17.4905366851
  C         5.1415415158        5.6212882571       18.6005871574
  C         4.8780841422        6.9736443309       18.1466137543
  C         4.4548313936        6.9103006102       16.7624565754
  C         4.4619543018        5.5186130862       16.3583653272
  C         4.8651261652        5.1702913597       15.0703345369
     109
 i =        4, E =     -1594.1437383772
 Au         1.6649000000        0.0000000000        0.0000000000
 Au         6.6598000000        0.0000000000        0.0000000000
 Au         4.1623000000        1.4419000000        0.0000000000
 Au         9.1572000000        1.4419000000        0.0000000000
 Au         6.6598000000        2.8838000000        0.0000000000
 Au        11.6546000000        2.8838000000        0.0000000000
 Au         4.1623000000        4.3256000000        0.0000000000
 Au         9.1572000000        4.3256000000        0.0000000000
 Au         6.6598000000        5.7675000000        0.0000000000
 Au        11.6546000000        5.7675000000        0.0000000000
 Au         9.1572000000        7.2094000000        0.0000000000
 Au        14.1520000000        7.2094000000        0.0000000000
 Au         3.3299000000        0.0000000000        2.3546000000
 Au         8.3247000000        0.0000000000        2.3546000000
 Au         5.8273000000        1.4419000000        2.3546000000
 Au        10.8221000000        1.4419000000        2.3546000000
 Au         8.3247000000        2.8838000000        2.3546000000
 Au        13.3195000000        2.8838000000        2.3546000000
 Au         5.8273000000        4.3256000000        2.3546000000
 Au        10.8221000000        4.3256000000        2.3546000000
 Au         8.3247000000        5.7675000000        2.3546000000
 Au        13.3195000000        5.7675000000        2.3546000000
 Au        10.8221000000        7.2094000000        2.3546000000
 Au        15.8169000000        7.2094000000        2.3546000000
 Au         0.0000000000        0.0000000000        4.7091000000
 Au         4.9948000000        0.0000000000        4.7091000000
 Au         2.4974000000        1.4419000000        4.7091000000
 Au         7.4922000000        1.4419000000        4.7091000000
 Au         4.9948000000        2.8838000000        4.7091000000
 Au         9.9896000000        2.8838000000        4.7091000000
 Au         2.4974000000        4.3256000000        4.7091000000
 Au         7.4922000000        4.3256000000        4.7091000000
 Au         4.9948000000        5.7675000000        4.7091000000
 Au         9.9896000000        5.7675000000        4.7091000000
 Au         7.4922000000        7.2094000000        4.7091000000
 Au        12.4870000000        7.2094000000        4.7091000000
  H         6.1719650755        6.3554192453        7.7356879944
  C         7.0204206770        6.1171273361        8.3795045225
  C         6.9823594580        6.2591801818        9.7420288771
  H         6.0962868070        6.6453520865       10.2427714331
  C         8.1220552567        5.9200292003       10.5241755639
  N         8.1234798120        6.1275392354       11.8662083993
  C         9.3111649757        5.4171940180        9.9416876924
  H        10.1962441330        5.1702304317       10.5133940980
  C         9.3324801339        5.2753169463        8.6009892770
  H        10.1651110548        4.9151396636        7.9993931621
  C         8.2172619770        5.6201209667        7.8255816228
  N         8.5041974916        5.3533293268        6.5822199068
  H         8.1589983742        5.9281380737        5.5564168155
  C         4.8361132082        7.9009168755       15.8565948554
  C         5.6977956554        8.9698964080       16.3021649208
  C         6.6305993091        9.2559638170       15.2323948358
  C         6.3432473648        8.3833648965       14.1276913161
  C         5.2279241469        7.5418433693       14.5078419010
  C         5.2163954717        6.1980433519       14.1295530016
  C         6.2331184702        5.6944272442       13.2526047491
  C         7.0820892614        6.6236033326       12.6523906501
  C         7.3588565314        7.8890882714       13.2959050538
  C         8.7736170104        8.1554896072       13.6165350269
  C         9.0236805892        9.0130095266       14.7176012647
  C         7.9502771052        9.5821186142       15.5121673063
  C         8.3781470827        9.6734016855       16.8978853736
  C         7.4818604623        9.4050826633       17.9372872294
  C         6.1141574444        9.0382606729       17.6311015496
  C         5.6944384429        8.0238698795       18.5777589843
  C         6.8021014437        7.7636062155       19.4773893042
  C         7.9066810130        8.6221677802       19.0847105187
  C         9.2187287968        8.1483617131       19.1551459667
  C        10.1496247009        8.4416523274       18.0810337338
  C         9.7303376126        9.1815716392       16.9710724880
  C        10.1302757041        8.7914024223       15.6305568269
  C        10.9605577698        7.6928186362       15.4641434888
  C        10.7255273040        6.7991234377       14.3633043778
  C         9.7120948355        7.0343777111       13.4210636600
  C         9.1720772734        5.8660228524       12.7577854178
  C         9.1819014885        4.6307193328       13.4075785996
  C         7.9737489286        3.8736564475       13.7961136019
  C         6.6422723339        4.3539700005       13.7245297602
  C         5.7289545331        4.0389029546       14.8307425875
  C         6.1246580972        3.2732164832       15.9288384844
  C         7.4738325276        2.7820614309       16.0015528567
  C         8.3679989192        3.0848371780       14.9728817336
  C         9.7284402762        3.4135548841       15.3319050345
  C        10.1959297038        4.4002856869       14.3968353290
  C        11.0051597464        5.4547641742       14.8217256137
  C        11.4062735017        5.5267181045       16.2114884700
  C        11.3925552058        6.9170003819       16.6088848255
  C        10.9935351441        7.2787643703       17.8943371679
  C        10.5796778507        6.2601004027       18.8416850896
  C         9.4797315299        6.7959794632       19.6203584961
  C         8.4154187443        5.9664811837       19.9901392902
  C         7.0520100801        6.4586689703       19.9162935807
  C         6.2052825563        5.3671275819       19.4689090052
  C         7.0459340804        4.2016245173       19.2588664031
  C         8.4110525517        4.5709551213       19.5881616053
  C         9.4712516204        4.0564352032       18.8362449849
  C        10.5781288541        4.9152030007       18.4564321401
  C        10.9922769626        4.5459614845       17.1155805776
  C        10.1356487543        3.4696791728       16.6655518659
  C         9.2016141324        3.1630562301       17.7253665733
  C         7.8917112336        2.8190113435       17.3950249671
  C         6.7935704609        3.3423651867       18.1822308540
  C         5.6973160937        3.6168173646       17.2756851623
  C         4.8795559826        4.7234141860       17.4923165143
  C         5.1382191716        5.6205538677       18.6024857990
  C         4.8777234549        6.9736645652       18.1469346182
  C         4.4528543146        6.9094197051       16.7627557223
  C         4.4594614756        5.5169377243       16.3593613144
  C         4.8610884276        5.1693249386       15.0701111415
     109
 i =        5, E =     -1594.1559779633
 Au         1.6649000000        0.0000000000        0.0000000000
 Au         6.6598000000        0.0000000000        0.0000000000
 Au         4.1623000000        1.4419000000        0.0000000000
 Au         9.1572000000        1.4419000000        0.0000000000
 Au         6.6598000000        2.8838000000        0.0000000000
 Au        11.6546000000        2.8838000000        0.0000000000
 Au         4.1623000000        4.3256000000        0.0000000000
 Au         9.1572000000        4.3256000000        0.0000000000
 Au         6.6598000000        5.7675000000        0.0000000000
 Au        11.6546000000        5.7675000000        0.0000000000
 Au         9.1572000000        7.2094000000        0.0000000000
 Au        14.1520000000        7.2094000000        0.0000000000
 Au         3.3299000000        0.0000000000        2.3546000000
 Au         8.3247000000        0.0000000000        2.3546000000
 Au         5.8273000000        1.4419000000        2.3546000000
 Au        10.8221000000        1.4419000000        2.3546000000
 Au         8.3247000000        2.8838000000        2.3546000000
 Au        13.3195000000        2.8838000000        2.3546000000
 Au         5.8273000000        4.3256000000        2.3546000000
 Au        10.8221000000        4.3256000000        2.3546000000
 Au         8.3247000000        5.7675000000        2.3546000000