      79
 i =      114, E =     -1894.9361327897
 Au         0.0000000000        0.0000000000        0.0000000000
 Au         2.9200000000        0.0000000000        0.0000000000
 Au         5.8400000000        0.0000000000        0.0000000000
 Au         1.4600000000        2.5287941680        0.0000000000
 Au         4.3800000000        2.5287941680        0.0000000000
 Au         7.3000000000        2.5287941680        0.0000000000
 Au         2.9200000000        5.0575883360        0.0000000000
 Au         5.8400000000        5.0575883360        0.0000000000
 Au         8.7600000000        5.0575883360        0.0000000000
 Au         1.4600000000        0.8429312920        2.3841700720
 Au         4.3800000000        0.8429312920        2.3841700720
 Au         7.3000000000        0.8429312920        2.3841700720
 Au         2.9200000000        3.3717254600        2.3841700720
 Au         5.8400000000        3.3717254600        2.3841700720
 Au         8.7600000000        3.3717254600        2.3841700720
 Au         4.3800000000        5.9005196280        2.3841700720
 Au         7.3000000000        5.9005196280        2.3841700720
 Au        10.2200000000        5.9005196280        2.3841700720
 Au         0.0000000000        1.6858628760        4.7683401440
 Au         2.9200000000        1.6858628760        4.7683401440
 Au         5.8400000000        1.6858628760        4.7683401440
 Au         1.4600000000        4.2146570440        4.7683401440
 Au         4.3800000000        4.2146570440        4.7683401440
 Au         7.3000000000        4.2146570440        4.7683401440
 Au         2.9200000000        6.7434512120        4.7683401440
 Au         5.8400000000        6.7434512120        4.7683401440
 Au         8.7600000000        6.7434512120        4.7683401440
  C         5.7669754814        3.6078376253       16.0431363230
  C         5.0368554867        4.1356420958       14.9574729426
  C         5.0162153918        3.4797986943       13.7272034870
  C         5.7107557396        2.2747561735       13.5335682137
  C         6.4678852408        2.4049464270       15.8611628166
  C         6.4349716012        1.7594462217       14.6233035394
  C         5.6572343735        2.2450454834       10.9181357680
  H         4.4480108429        3.9140094747       12.9023027022
  S         5.8332837580        4.6085288014       17.5175206002
  H         7.0447658321        1.9814979237       16.6844269899
  H         6.9862852647        0.8239818292       14.5046876608
  H         4.4896540365        5.0701767359       15.0846022835
  C         6.7816142037        3.0016269816       10.5428170530
  C         6.8480666236        3.6375167312        9.3046404799
  C         5.7738699992        3.5463084912        8.3951958877
  C         4.6521797891        2.7792537218        8.7492831363
  C         4.6034908964        2.1462730879        9.9942780989
  H         7.7298799178        4.2202825107        9.0372481498
  H         7.6242319734        3.0928488426       11.2313000409
  H         3.8157721454        2.6903515253        8.0554296659
  H         3.7212354697        1.5548181300       10.2490013898
  S         5.8110679856        4.5901948415        6.9518186024
  C         5.6174248463        1.4852215388       12.2341026081
  H         4.6843720064        0.8964753403       12.2619598980
  H         6.4303428173        0.7398036313       12.2306551044
 Au         8.7600000000        6.7434512120       19.7039800000
 Au         5.8400000000        6.7434512120       19.7039800000
 Au         2.9200000000        6.7434512120       19.7039800000
 Au         7.3000000000        4.2146570440       19.7039800000
 Au         4.3800000000        4.2146570440       19.7039800000
 Au         1.4600000000        4.2146570440       19.7039800000
 Au         5.8400000000        1.6858628760       19.7039800000
 Au         2.9200000000        1.6858628760       19.7039800000
 Au         0.0000000000        1.6858628760       19.7039800000
 Au        10.2200000000        5.9005196280       22.0881500720
 Au         7.3000000000        5.9005196280       22.0881500720
 Au         4.3800000000        5.9005196280       22.0881500720
 Au         8.7600000000        3.3717254600       22.0881500720
 Au         5.8400000000        3.3717254600       22.0881500720
 Au         2.9200000000        3.3717254600       22.0881500720
 Au         7.3000000000        0.8429312920       22.0881500720
 Au         4.3800000000        0.8429312920       22.0881500720
 Au         1.4600000000        0.8429312920       22.0881500720
 Au         8.7600000000        5.0575883360       24.4723201440
 Au         5.8400000000        5.0575883360       24.4723201440
 Au         2.9200000000        5.0575883360       24.4723201440
 Au         7.3000000000        2.5287941680       24.4723201440
 Au         4.3800000000        2.5287941680       24.4723201440
 Au         1.4600000000        2.5287941680       24.4723201440
 Au         5.8400000000        0.0000000000       24.4723201440
 Au         2.9200000000        0.0000000000       24.4723201440
 Au         0.0000000000        0.0000000000       24.4723201440
Au    8.7600000000    6.7434512120    48.496850280000004    R1
Au    5.8400000000    6.7434512120    48.496850280000004    R1
Au    2.9200000000    6.7434512120    48.496850280000004    R1
Au    7.3000000000    4.2146570440    48.496850280000004    R1
Au    4.3800000000    4.2146570440    48.496850280000004    R1
Au    1.4600000000    4.2146570440    48.496850280000004    R1
Au    5.8400000000    1.6858628760    48.496850280000004    R1
Au    2.9200000000    1.6858628760    48.496850280000004    R1
Au    0.0000000000    1.6858628760    48.496850280000004    R1
Au    10.2200000000    5.9005196280    50.88102035200001    R1
Au    7.3000000000    5.9005196280    50.88102035200001    R1
Au    4.3800000000    5.9005196280    50.88102035200001    R1
Au    8.7600000000    3.3717254600    50.88102035200001    R1
Au    5.8400000000    3.3717254600    50.88102035200001    R1
Au    2.9200000000    3.3717254600    50.88102035200001    R1
Au    7.3000000000    0.8429312920    50.88102035200001    R1
Au    4.3800000000    0.8429312920    50.88102035200001    R1
Au    1.4600000000    0.8429312920    50.88102035200001    R1
Au    8.7600000000    5.0575883360    53.265190424000004    R1
Au    5.8400000000    5.0575883360    53.265190424000004    R1
Au    2.9200000000    5.0575883360    53.265190424000004    R1
Au    7.3000000000    2.5287941680    53.265190424000004    R1
Au    4.3800000000    2.5287941680    53.265190424000004    R1
Au    1.4600000000    2.5287941680    53.265190424000004    R1
Au    5.8400000000    0.0000000000    53.265190424000004    R1
Au    2.9200000000    0.0000000000    53.265190424000004    R1
Au    0.0000000000    0.0000000000    53.265190424000004    R1
Au    8.7600000000    6.7434512120    55.649360204000004    R2
Au    5.8400000000    6.7434512120    55.649360204000004    R2
Au    2.9200000000    6.7434512120    55.649360204000004    R2
Au    7.3000000000    4.2146570440    55.649360204000004    R2
Au    4.3800000000    4.2146570440    55.649360204000004    R2
Au    1.4600000000    4.2146570440    55.649360204000004    R2
Au    5.8400000000    1.6858628760    55.649360204000004    R2
Au    2.9200000000    1.6858628760    55.649360204000004    R2
Au    0.0000000000    1.6858628760    55.649360204000004    R2
Au    10.2200000000    5.9005196280    58.03353027600001    R2
Au    7.3000000000    5.9005196280    58.03353027600001    R2
Au    4.3800000000    5.9005196280    58.03353027600001    R2
Au    8.7600000000    3.3717254600    58.03353027600001    R2
Au    5.8400000000    3.3717254600    58.03353027600001    R2
Au    2.9200000000    3.3717254600    58.03353027600001    R2
Au    7.3000000000    0.8429312920    58.03353027600001    R2
Au    4.3800000000    0.8429312920    58.03353027600001    R2
Au    1.4600000000    0.8429312920    58.03353027600001    R2
Au    8.7600000000    5.0575883360    60.417700348000004    R2
Au    5.8400000000    5.0575883360    60.417700348000004    R2
Au    2.9200000000    5.0575883360    60.417700348000004    R2
Au    7.3000000000    2.5287941680    60.417700348000004    R2
Au    4.3800000000    2.5287941680    60.417700348000004    R2
Au    1.4600000000    2.5287941680    60.417700348000004    R2
Au    5.8400000000    0.0000000000    60.417700348000004    R2
Au    2.9200000000    0.0000000000    60.417700348000004    R2
Au    0.0000000000    0.0000000000    60.417700348000004    R2
Au    8.7600000000    6.7434512120    62.801870128000004    R3
Au    5.8400000000    6.7434512120    62.801870128000004    R3
Au    2.9200000000    6.7434512120    62.801870128000004    R3
Au    7.3000000000    4.2146570440    62.801870128000004    R3
Au    4.3800000000    4.2146570440    62.801870128000004    R3
Au    1.4600000000    4.2146570440    62.801870128000004    R3
Au    5.8400000000    1.6858628760    62.801870128000004    R3
Au    2.9200000000    1.6858628760    62.801870128000004    R3
Au    0.0000000000    1.6858628760    62.801870128000004    R3
Au    10.2200000000    5.9005196280    65.18604020000001    R3
Au    7.3000000000    5.9005196280    65.18604020000001    R3
Au    4.3800000000    5.9005196280    65.18604020000001    R3
Au    8.7600000000    3.3717254600    65.18604020000001    R3
Au    5.8400000000    3.3717254600    65.18604020000001    R3
Au    2.9200000000    3.3717254600    65.18604020000001    R3
Au    7.3000000000    0.8429312920    65.18604020000001    R3
Au    4.3800000000    0.8429312920    65.18604020000001    R3
Au    1.4600000000    0.8429312920    65.18604020000001    R3
Au    8.7600000000    5.0575883360    67.570210272    R3
Au    5.8400000000    5.0575883360    67.570210272    R3
Au    2.9200000000    5.0575883360    67.570210272    R3
Au    7.3000000000    2.5287941680    67.570210272    R3
Au    4.3800000000    2.5287941680    67.570210272    R3
Au    1.4600000000    2.5287941680    67.570210272    R3
Au    5.8400000000    0.0000000000    67.570210272    R3
Au    2.9200000000    0.0000000000    67.570210272    R3
Au    0.0000000000    0.0000000000    67.570210272    R3
