     133
 i =      316, E =     -3337.8174649247
 Au         0.0000000000        0.0000000000        0.0000000000
 Au         8.7600000000        0.0000000000        0.0000000000
 Au         4.3800000000        7.5863820000        0.0000000000
 Au        13.1400000000        7.5863820000        0.0000000000
 Au         2.9200000000        0.0000000000        0.0000000000
 Au         7.3000000000        7.5863820000        0.0000000000
 Au         5.8400000000        0.0000000000        0.0000000000
 Au        10.2200000000        7.5863820000        0.0000000000
 Au         1.4600000000        2.5287940000        0.0000000000
 Au        10.2200000000        2.5287940000        0.0000000000
 Au         4.3800000000        2.5287940000        0.0000000000
 Au         7.3000000000        2.5287940000        0.0000000000
 Au         2.9200000000        5.0575880000        0.0000000000
 Au        11.6800000000        5.0575880000        0.0000000000
 Au         5.8400000000        5.0575880000        0.0000000000
 Au         8.7600000000        5.0575880000        0.0000000000
 Au         1.4600000000        0.8429310000        2.3841700000
 Au        10.2200000000        0.8429310000        2.3841700000
 Au         5.8400000000        8.4293140000        2.3841700000
 Au        14.6000000000        8.4293140000        2.3841700000
 Au         4.3800000000        0.8429310000        2.3841700000
 Au         8.7600000000        8.4293140000        2.3841700000
 Au         7.3000000000        0.8429310000        2.3841700000
 Au        11.6800000000        8.4293140000        2.3841700000
 Au         2.9200000000        3.3717260000        2.3841700000
 Au        11.6800000000        3.3717260000        2.3841700000
 Au         5.8400000000        3.3717260000        2.3841700000
 Au         8.7600000000        3.3717260000        2.3841700000
 Au         4.3800000000        5.9005200000        2.3841700000
 Au        13.1400000000        5.9005200000        2.3841700000
 Au         7.3000000000        5.9005200000        2.3841700000
 Au        10.2200000000        5.9005200000        2.3841700000
 Au         8.7600000000        1.6858630000        4.7683400000
 Au        13.1400000000        9.2722450000        4.7683400000
 Au         2.9200000000        1.6858630000        4.7683400000
 Au        11.6800000000        1.6858630000        4.7683400000
 Au         7.3000000000        9.2722450000        4.7683400000
 Au        16.0599990000        9.2722450000        4.7683400000
 Au         5.8400000000        1.6858630000        4.7683400000
 Au        10.2200000000        9.2722450000        4.7683400000
 Au        10.2200000000        4.2146570000        4.7683400000
 Au         4.3800000000        4.2146570000        4.7683400000
 Au        13.1400000000        4.2146570000        4.7683400000
 Au         7.3000000000        4.2146570000        4.7683400000
 Au        11.6800000000        6.7434510000        4.7683400000
 Au         5.8400000000        6.7434510000        4.7683400000
 Au        14.6000000000        6.7434510000        4.7683400000
 Au         8.7600000000        6.7434510000        4.7683400000
  C         8.8845577976        7.0793741802       19.4361971242
  C         8.8365380561        5.6800631676       19.3344478915
  C         8.8839510098        5.0681949529       18.0830427278
  C         8.9759442485        5.8212039233       16.8931416712
  C         8.9905745681        7.8448133168       18.2571848271
  C         9.0331881758        7.2233090285       17.0155976658
  C         9.0040094749        5.1824047948       15.5577693149
  C         9.6382363734        3.9450564000       15.3403436386
  C         9.6596482906        3.3604002091       14.0736928879
  C         9.0466224884        3.9777675094       12.9724753271
  C         8.4028521920        5.8065944220       14.4451028941
  C         8.4261851616        5.2199877868       13.1823493322
  C         8.9494965015        3.2497735449       11.6316892317
  C         9.2135160990        4.1425503527       10.4215802549
  C         8.3347504834        4.1889905715        9.3304052459
  C         8.5908222312        5.0080038208        8.2299485055
  C         9.7548617622        5.7894255102        8.1837489714
  C        10.3852565810        4.9167126979       10.3606618694
  C        10.6655390208        5.7186687468        9.2580142448
  H         8.7481710834        5.0712770066       20.2367329972
  H         8.8156429644        3.9808742676       18.0278519179
  S         8.7926338404        8.0325355290       20.9317381900
  H         9.0446513046        8.9314093548       18.3256453495
  H         9.1394300744        7.8394560236       16.1221940493
  H         7.8862696635        6.7579772190       14.5785614823
  H        10.1477159030        3.4482768649       16.1672294243
  H        10.1679992085        2.4026961108       13.9370429141
  H         7.9493701325        5.7338121685       12.3448816682
  H        11.0920578165        4.8947614290       11.1925073156
  H         7.4432719884        3.5630153448        9.3390551251
  H         7.8762322463        5.0520318255        7.4062186257
  S        10.0585324000        7.0209386958        6.9412690454
  H        11.5813721545        6.3094245257        9.2299672970
  N         7.6655145781        2.5295061241       11.4905747280
  H         9.7318202762        2.4701000797       11.6253263227
  H         6.8915666655        3.1773252615       11.6809628927
  H         7.6070891258        1.8166160466       12.2242316443
 Au         0.0000000000        0.0000000000       23.0678022631
 Au         8.7600000000        0.0000000000       23.0678022631
 Au         4.3800000000        7.5863820000       23.0678022631
 Au        13.1400000000        7.5863820000       23.0678022631
 Au         2.9200000000        0.0000000000       23.0678022631
 Au         7.3000000000        7.5863820000       23.0678022631
 Au         5.8400000000        0.0000000000       23.0678022631
 Au        10.2200000000        7.5863820000       23.0678022631
 Au         1.4600000000        2.5287940000       23.0678022631
 Au        10.2200000000        2.5287940000       23.0678022631
 Au         4.3800000000        2.5287940000       23.0678022631
 Au         7.3000000000        2.5287940000       23.0678022631
 Au         2.9200000000        5.0575880000       23.0678022631
 Au        11.6800000000        5.0575880000       23.0678022631
 Au         5.8400000000        5.0575880000       23.0678022631
 Au         8.7600000000        5.0575880000       23.0678022631
 Au         1.4600000000        0.8429310000       25.4519722631
 Au        10.2200000000        0.8429310000       25.4519722631
 Au         5.8400000000        8.4293140000       25.4519722631
 Au        14.6000000000        8.4293140000       25.4519722631
 Au         4.3800000000        0.8429310000       25.4519722631
 Au         8.7600000000        8.4293140000       25.4519722631
 Au         7.3000000000        0.8429310000       25.4519722631
 Au        11.6800000000        8.4293140000       25.4519722631
 Au         2.9200000000        3.3717260000       25.4519722631
 Au        11.6800000000        3.3717260000       25.4519722631
 Au         5.8400000000        3.3717260000       25.4519722631
 Au         8.7600000000        3.3717260000       25.4519722631
 Au         4.3800000000        5.9005200000       25.4519722631
 Au        13.1400000000        5.9005200000       25.4519722631
 Au         7.3000000000        5.9005200000       25.4519722631
 Au        10.2200000000        5.9005200000       25.4519722631
 Au         8.7600000000        1.6858630000       27.8361422631
 Au        13.1400000000        9.2722450000       27.8361422631
 Au         2.9200000000        1.6858630000       27.8361422631
 Au        11.6800000000        1.6858630000       27.8361422631
 Au         7.3000000000        9.2722450000       27.8361422631
 Au        16.0599990000        9.2722450000       27.8361422631
 Au         5.8400000000        1.6858630000       27.8361422631
 Au        10.2200000000        9.2722450000       27.8361422631
 Au        10.2200000000        4.2146570000       27.8361422631
 Au         4.3800000000        4.2146570000       27.8361422631
 Au        13.1400000000        4.2146570000       27.8361422631
 Au         7.3000000000        4.2146570000       27.8361422631
 Au        11.6800000000        6.7434510000       27.8361422631
 Au         5.8400000000        6.7434510000       27.8361422631
 Au        14.6000000000        6.7434510000       27.8361422631
 Au         8.7600000000        6.7434510000       27.8361422631
 Au    0.000000    0.000000    51.6778423991    R1
Au    8.760000    0.000000    51.6778423991    R1
Au    4.380000    7.586382    51.6778423991    R1
Au    13.140000    7.586382    51.6778423991    R1
Au    2.920000    0.000000    51.6778423991    R1
Au    7.300000    7.586382    51.6778423991    R1
Au    5.840000    0.000000    51.6778423991    R1
Au    10.220000    7.586382    51.6778423991    R1
Au    1.460000    2.528794    51.6778423991    R1
Au    10.220000    2.528794    51.6778423991    R1
Au    4.380000    2.528794    51.6778423991    R1
Au    7.300000    2.528794    51.6778423991    R1
Au    2.920000    5.057588    51.6778423991    R1
Au    11.680000    5.057588    51.6778423991    R1
Au    5.840000    5.057588    51.6778423991    R1
Au    8.760000    5.057588    51.6778423991    R1
Au    1.460000    0.842931    54.0620123991    R1
Au    10.220000    0.842931    54.0620123991    R1
Au    5.840000    8.429314    54.0620123991    R1
Au    14.600000    8.429314    54.0620123991    R1
Au    4.380000    0.842931    54.0620123991    R1
Au    8.760000    8.429314    54.0620123991    R1
Au    7.300000    0.842931    54.0620123991    R1
Au    11.680000    8.429314    54.0620123991    R1
Au    2.920000    3.371726    54.0620123991    R1
Au    11.680000    3.371726    54.0620123991    R1
Au    5.840000    3.371726    54.0620123991    R1
Au    8.760000    3.371726    54.0620123991    R1
Au    4.380000    5.900520    54.0620123991    R1
Au    13.140000    5.900520    54.0620123991    R1
Au    7.300000    5.900520    54.0620123991    R1
Au    10.220000    5.900520    54.0620123991    R1
Au    8.760000    1.685863    56.4461823991    R1
Au    13.140000    9.272245    56.4461823991    R1
Au    2.920000    1.685863    56.4461823991    R1
Au    11.680000    1.685863    56.4461823991    R1
Au    7.300000    9.272245    56.4461823991    R1
Au    16.059999    9.272245    56.4461823991    R1
Au    5.840000    1.685863    56.4461823991    R1
Au    10.220000    9.272245    56.4461823991    R1
Au    10.220000    4.214657    56.4461823991    R1
Au    4.380000    4.214657    56.4461823991    R1
Au    13.140000    4.214657    56.4461823991    R1
Au    7.300000    4.214657    56.4461823991    R1
Au    11.680000    6.743451    56.4461823991    R1
Au    5.840000    6.743451    56.4461823991    R1
Au    14.600000    6.743451    56.4461823991    R1
Au    8.760000    6.743451    56.4461823991    R1
Au    0.000000    0.000000    58.8303513991    R2
Au    8.760000    0.000000    58.8303513991    R2
Au    4.380000    7.586382    58.8303513991    R2
Au    13.140000    7.586382    58.8303513991    R2
Au    2.920000    0.000000    58.8303513991    R2
Au    7.300000    7.586382    58.8303513991    R2
Au    5.840000    0.000000    58.8303513991    R2
Au    10.220000    7.586382    58.8303513991    R2
Au    1.460000    2.528794    58.8303513991    R2
Au    10.220000    2.528794    58.8303513991    R2
Au    4.380000    2.528794    58.8303513991    R2
Au    7.300000    2.528794    58.8303513991    R2
Au    2.920000    5.057588    58.8303513991    R2
Au    11.680000    5.057588    58.8303513991    R2
Au    5.840000    5.057588    58.8303513991    R2
Au    8.760000    5.057588    58.8303513991    R2
Au    1.460000    0.842931    61.214522399100005    R2
Au    10.220000    0.842931    61.214522399100005    R2
Au    5.840000    8.429314    61.214522399100005    R2
Au    14.600000    8.429314    61.214522399100005    R2
Au    4.380000    0.842931    61.214522399100005    R2
Au    8.760000    8.429314    61.214522399100005    R2
Au    7.300000    0.842931    61.214522399100005    R2
Au    11.680000    8.429314    61.214522399100005    R2
Au    2.920000    3.371726    61.214522399100005    R2
Au    11.680000    3.371726    61.214522399100005    R2
Au    5.840000    3.371726    61.214522399100005    R2
Au    8.760000    3.371726    61.214522399100005    R2
Au    4.380000    5.900520    61.214522399100005    R2
Au    13.140000    5.900520    61.214522399100005    R2
Au    7.300000    5.900520    61.214522399100005    R2
Au    10.220000    5.900520    61.214522399100005    R2
Au    8.760000    1.685863    63.5986923991    R2
Au    13.140000    9.272245    63.5986923991    R2
Au    2.920000    1.685863    63.5986923991    R2
Au    11.680000    1.685863    63.5986923991    R2
Au    7.300000    9.272245    63.5986923991    R2
Au    16.059999    9.272245    63.5986923991    R2
Au    5.840000    1.685863    63.5986923991    R2
Au    10.220000    9.272245    63.5986923991    R2
Au    10.220000    4.214657    63.5986923991    R2
Au    4.380000    4.214657    63.5986923991    R2
Au    13.140000    4.214657    63.5986923991    R2
Au    7.300000    4.214657    63.5986923991    R2
Au    11.680000    6.743451    63.5986923991    R2
Au    5.840000    6.743451    63.5986923991    R2
Au    14.600000    6.743451    63.5986923991    R2
Au    8.760000    6.743451    63.5986923991    R2
Au    0.000000    0.000000    65.9828613991    R3
Au    8.760000    0.000000    65.9828613991    R3
Au    4.380000    7.586382    65.9828613991    R3
Au    13.140000    7.586382    65.9828613991    R3
Au    2.920000    0.000000    65.9828613991    R3
Au    7.300000    7.586382    65.9828613991    R3
Au    5.840000    0.000000    65.9828613991    R3
Au    10.220000    7.586382    65.9828613991    R3
Au    1.460000    2.528794    65.9828613991    R3
Au    10.220000    2.528794    65.9828613991    R3
Au    4.380000    2.528794    65.9828613991    R3
Au    7.300000    2.528794    65.9828613991    R3
Au    2.920000    5.057588    65.9828613991    R3
Au    11.680000    5.057588    65.9828613991    R3
Au    5.840000    5.057588    65.9828613991    R3
Au    8.760000    5.057588    65.9828613991    R3
Au    1.460000    0.842931    68.3670323991    R3
Au    10.220000    0.842931    68.3670323991    R3
Au    5.840000    8.429314    68.3670323991    R3
Au    14.600000    8.429314    68.3670323991    R3
Au    4.380000    0.842931    68.3670323991    R3
Au    8.760000    8.429314    68.3670323991    R3
Au    7.300000    0.842931    68.3670323991    R3
Au    11.680000    8.429314    68.3670323991    R3
Au    2.920000    3.371726    68.3670323991    R3
Au    11.680000    3.371726    68.3670323991    R3
Au    5.840000    3.371726    68.3670323991    R3
Au    8.760000    3.371726    68.3670323991    R3
Au    4.380000    5.900520    68.3670323991    R3
Au    13.140000    5.900520    68.3670323991    R3
Au    7.300000    5.900520    68.3670323991    R3
Au    10.220000    5.900520    68.3670323991    R3
Au    8.760000    1.685863    70.75120239910001    R3
Au    13.140000    9.272245    70.75120239910001    R3
Au    2.920000    1.685863    70.75120239910001    R3
Au    11.680000    1.685863    70.75120239910001    R3
Au    7.300000    9.272245    70.75120239910001    R3
Au    16.059999    9.272245    70.75120239910001    R3
Au    5.840000    1.685863    70.75120239910001    R3
Au    10.220000    9.272245    70.75120239910001    R3
Au    10.220000    4.214657    70.75120239910001    R3
Au    4.380000    4.214657    70.75120239910001    R3
Au    13.140000    4.214657    70.75120239910001    R3
Au    7.300000    4.214657    70.75120239910001    R3
Au    11.680000    6.743451    70.75120239910001    R3
Au    5.840000    6.743451    70.75120239910001    R3
Au    14.600000    6.743451    70.75120239910001    R3
Au    8.760000    6.743451    70.75120239910001    R3