     902
 i =       72, E =     -6434.2718402668
Au    0.000000    0.000000    0.000000    L3
Au    8.760000    0.000000    0.000000    L3
Au    4.380000    7.586382    0.000000    L3
Au    13.140000    7.586382    0.000000    L3
Au    2.920000    0.000000    0.000000    L3
Au    11.680000    0.000000    0.000000    L3
Au    7.300000    7.586382    0.000000    L3
Au    16.059999    7.586382    0.000000    L3
Au    5.840000    0.000000    0.000000    L3
Au    14.600000    0.000000    0.000000    L3
Au    10.220000    7.586382    0.000000    L3
Au    18.980000    7.586382    0.000000    L3
Au    1.460000    2.528794    0.000000    L3
Au    10.220000    2.528794    0.000000    L3
Au    5.840000    10.115176    0.000000    L3
Au    14.600000    10.115176    0.000000    L3
Au    4.380000    2.528794    0.000000    L3
Au    13.140000    2.528794    0.000000    L3
Au    8.760000    10.115176    0.000000    L3
Au    17.520000    10.115176    0.000000    L3
Au    7.300000    2.528794    0.000000    L3
Au    16.059999    2.528794    0.000000    L3
Au    11.680000    10.115176    0.000000    L3
Au    20.440001    10.115176    0.000000    L3
Au    2.920000    5.057588    0.000000    L3
Au    11.680000    5.057588    0.000000    L3
Au    5.840000    5.057588    0.000000    L3
Au    14.600000    5.057588    0.000000    L3
Au    8.760000    5.057588    0.000000    L3
Au    17.520000    5.057588    0.000000    L3
Au    1.460000    0.842931    2.384170    L3
Au    10.220000    0.842931    2.384170    L3
Au    5.840000    8.429314    2.384170    L3
Au    14.600000    8.429314    2.384170    L3
Au    4.380000    0.842931    2.384170    L3
Au    13.140000    0.842931    2.384170    L3
Au    8.760000    8.429314    2.384170    L3
Au    17.520000    8.429314    2.384170    L3
Au    7.300000    0.842931    2.384170    L3
Au    16.059999    0.842931    2.384170    L3
Au    11.680000    8.429314    2.384170    L3
Au    20.440001    8.429314    2.384170    L3
Au    2.920000    3.371726    2.384170    L3
Au    11.680000    3.371726    2.384170    L3
Au    7.300000    10.958108    2.384170    L3
Au    16.059999    10.958108    2.384170    L3
Au    5.840000    3.371726    2.384170    L3
Au    14.600000    3.371726    2.384170    L3
Au    10.220000    10.958108    2.384170    L3
Au    18.980000    10.958108    2.384170    L3
Au    8.760000    3.371726    2.384170    L3
Au    17.520000    3.371726    2.384170    L3
Au    13.140000    10.958108    2.384170    L3
Au    21.900000    10.958108    2.384170    L3
Au    4.380000    5.900520    2.384170    L3
Au    13.140000    5.900520    2.384170    L3
Au    7.300000    5.900520    2.384170    L3
Au    16.059999    5.900520    2.384170    L3
Au    10.220000    5.900520    2.384170    L3
Au    18.980000    5.900520    2.384170    L3
Au    0.000000    1.685863    4.768340    L3
Au    8.760000    1.685863    4.768340    L3
Au    4.380000    9.272245    4.768340    L3
Au    13.140000    9.272245    4.768340    L3
Au    2.920000    1.685863    4.768340    L3
Au    11.680000    1.685863    4.768340    L3
Au    7.300000    9.272245    4.768340    L3
Au    16.059999    9.272245    4.768340    L3
Au    5.840000    1.685863    4.768340    L3
Au    14.600000    1.685863    4.768340    L3
Au    10.220000    9.272245    4.768340    L3
Au    18.980000    9.272245    4.768340    L3
Au    1.460000    4.214657    4.768340    L3
Au    10.220000    4.214657    4.768340    L3
Au    5.840000    11.801040    4.768340    L3
Au    14.600000    11.801040    4.768340    L3
Au    4.380000    4.214657    4.768340    L3
Au    13.140000    4.214657    4.768340    L3
Au    8.760000    11.801040    4.768340    L3
Au    17.520000    11.801040    4.768340    L3
Au    7.300000    4.214657    4.768340    L3
Au    16.059999    4.214657    4.768340    L3
Au    11.680000    11.801040    4.768340    L3
Au    20.440001    11.801040    4.768340    L3
Au    2.920000    6.743451    4.768340    L3
Au    11.680000    6.743451    4.768340    L3
Au    5.840000    6.743451    4.768340    L3
Au    14.600000    6.743451    4.768340    L3
Au    8.760000    6.743451    4.768340    L3
Au    17.520000    6.743451    4.768340    L3
Au    0.000000    0.000000    7.152510    L2
Au    8.760000    0.000000    7.152510    L2
Au    4.380000    7.586382    7.152510    L2
Au    13.140000    7.586382    7.152510    L2
Au    2.920000    0.000000    7.152510    L2
Au    11.680000    0.000000    7.152510    L2
Au    7.300000    7.586382    7.152510    L2
Au    16.059999    7.586382    7.152510    L2
Au    5.840000    0.000000    7.152510    L2
Au    14.600000    0.000000    7.152510    L2
Au    10.220000    7.586382    7.152510    L2
Au    18.980000    7.586382    7.152510    L2
Au    1.460000    2.528794    7.152510    L2
Au    10.220000    2.528794    7.152510    L2
Au    5.840000    10.115176    7.152510    L2
Au    14.600000    10.115176    7.152510    L2
Au    4.380000    2.528794    7.152510    L2
Au    13.140000    2.528794    7.152510    L2
Au    8.760000    10.115176    7.152510    L2
Au    17.520000    10.115176    7.152510    L2
Au    7.300000    2.528794    7.152510    L2
Au    16.059999    2.528794    7.152510    L2
Au    11.680000    10.115176    7.152510    L2
Au    20.440001    10.115176    7.152510    L2
Au    2.920000    5.057588    7.152510    L2
Au    11.680000    5.057588    7.152510    L2
Au    5.840000    5.057588    7.152510    L2
Au    14.600000    5.057588    7.152510    L2
Au    8.760000    5.057588    7.152510    L2
Au    17.520000    5.057588    7.152510    L2
Au    1.460000    0.842931    9.536680    L2
Au    10.220000    0.842931    9.536680    L2
Au    5.840000    8.429314    9.536680    L2
Au    14.600000    8.429314    9.536680    L2
Au    4.380000    0.842931    9.536680    L2
Au    13.140000    0.842931    9.536680    L2
Au    8.760000    8.429314    9.536680    L2
Au    17.520000    8.429314    9.536680    L2
Au    7.300000    0.842931    9.536680    L2
Au    16.059999    0.842931    9.536680    L2
Au    11.680000    8.429314    9.536680    L2
Au    20.440001    8.429314    9.536680    L2
Au    2.920000    3.371726    9.536680    L2
Au    11.680000    3.371726    9.536680    L2
Au    7.300000    10.958108    9.536680    L2
Au    16.059999    10.958108    9.536680    L2
Au    5.840000    3.371726    9.536680    L2
Au    14.600000    3.371726    9.536680    L2
Au    10.220000    10.958108    9.536680    L2
Au    18.980000    10.958108    9.536680    L2
Au    8.760000    3.371726    9.536680    L2
Au    17.520000    3.371726    9.536680    L2
Au    13.140000    10.958108    9.536680    L2
Au    21.900000    10.958108    9.536680    L2
Au    4.380000    5.900520    9.536680    L2
Au    13.140000    5.900520    9.536680    L2
Au    7.300000    5.900520    9.536680    L2
Au    16.059999    5.900520    9.536680    L2
Au    10.220000    5.900520    9.536680    L2
Au    18.980000    5.900520    9.536680    L2
Au    0.000000    1.685863    11.920850    L2
Au    8.760000    1.685863    11.920850    L2
Au    4.380000    9.272245    11.920850    L2
Au    13.140000    9.272245    11.920850    L2
Au    2.920000    1.685863    11.920850    L2
Au    11.680000    1.685863    11.920850    L2
Au    7.300000    9.272245    11.920850    L2
Au    16.059999    9.272245    11.920850    L2
Au    5.840000    1.685863    11.920850    L2
Au    14.600000    1.685863    11.920850    L2
Au    10.220000    9.272245    11.920850    L2
Au    18.980000    9.272245    11.920850    L2
Au    1.460000    4.214657    11.920850    L2
Au    10.220000    4.214657    11.920850    L2
Au    5.840000    11.801040    11.920850    L2
Au    14.600000    11.801040    11.920850    L2
Au    4.380000    4.214657    11.920850    L2
Au    13.140000    4.214657    11.920850    L2
Au    8.760000    11.801040    11.920850    L2
Au    17.520000    11.801040    11.920850    L2
Au    7.300000    4.214657    11.920850    L2
Au    16.059999    4.214657    11.920850    L2
Au    11.680000    11.801040    11.920850    L2
Au    20.440001    11.801040    11.920850    L2
Au    2.920000    6.743451    11.920850    L2
Au    11.680000    6.743451    11.920850    L2
Au    5.840000    6.743451    11.920850    L2
Au    14.600000    6.743451    11.920850    L2
Au    8.760000    6.743451    11.920850    L2
Au    17.520000    6.743451    11.920850    L2
Au    0.000000    0.000000    14.305019    L1
Au    8.760000    0.000000    14.305019    L1
Au    4.380000    7.586382    14.305019    L1
Au    13.140000    7.586382    14.305019    L1
Au    2.920000    0.000000    14.305019    L1
Au    11.680000    0.000000    14.305019    L1
Au    7.300000    7.586382    14.305019    L1
Au    16.059999    7.586382    14.305019    L1
Au    5.840000    0.000000    14.305019    L1
Au    14.600000    0.000000    14.305019    L1
Au    10.220000    7.586382    14.305019    L1
Au    18.980000    7.586382    14.305019    L1
Au    1.460000    2.528794    14.305019    L1
Au    10.220000    2.528794    14.305019    L1
Au    5.840000    10.115176    14.305019    L1
Au    14.600000    10.115176    14.305019    L1
Au    4.380000    2.528794    14.305019    L1
Au    13.140000    2.528794    14.305019    L1
Au    8.760000    10.115176    14.305019    L1
Au    17.520000    10.115176    14.305019    L1
Au    7.300000    2.528794    14.305019    L1
Au    16.059999    2.528794    14.305019    L1
Au    11.680000    10.115176    14.305019    L1
Au    20.440001    10.115176    14.305019    L1
Au    2.920000    5.057588    14.305019    L1
Au    11.680000    5.057588    14.305019    L1
Au    5.840000    5.057588    14.305019    L1
Au    14.600000    5.057588    14.305019    L1
Au    8.760000    5.057588    14.305019    L1
Au    17.520000    5.057588    14.305019    L1
Au    1.460000    0.842931    16.689190    L1
Au    10.220000    0.842931    16.689190    L1
Au    5.840000    8.429314    16.689190    L1
Au    14.600000    8.429314    16.689190    L1
Au    4.380000    0.842931    16.689190    L1
Au    13.140000    0.842931    16.689190    L1
Au    8.760000    8.429314    16.689190    L1
Au    17.520000    8.429314    16.689190    L1
Au    7.300000    0.842931    16.689190    L1
Au    16.059999    0.842931    16.689190    L1
Au    11.680000    8.429314    16.689190    L1
Au    20.440001    8.429314    16.689190    L1
Au    2.920000    3.371726    16.689190    L1
Au    11.680000    3.371726    16.689190    L1
Au    7.300000    10.958108    16.689190    L1
Au    16.059999    10.958108    16.689190    L1
Au    5.840000    3.371726    16.689190    L1
Au    14.600000    3.371726    16.689190    L1
Au    10.220000    10.958108    16.689190    L1
Au    18.980000    10.958108    16.689190    L1
Au    8.760000    3.371726    16.689190    L1
Au    17.520000    3.371726    16.689190    L1
Au    13.140000    10.958108    16.689190    L1
Au    21.900000    10.958108    16.689190    L1
Au    4.380000    5.900520    16.689190    L1
Au    13.140000    5.900520    16.689190    L1
Au    7.300000    5.900520    16.689190    L1
Au    16.059999    5.900520    16.689190    L1
Au    10.220000    5.900520    16.689190    L1
Au    18.980000    5.900520    16.689190    L1
Au    0.000000    1.685863    19.073360    L1
Au    8.760000    1.685863    19.073360    L1
Au    4.380000    9.272245    19.073360    L1
Au    13.140000    9.272245    19.073360    L1
Au    2.920000    1.685863    19.073360    L1
Au    11.680000    1.685863    19.073360    L1
Au    7.300000    9.272245    19.073360    L1
Au    16.059999    9.272245    19.073360    L1
Au    5.840000    1.685863    19.073360    L1
Au    14.600000    1.685863    19.073360    L1
Au    10.220000    9.272245    19.073360    L1
Au    18.980000    9.272245    19.073360    L1
Au    1.460000    4.214657    19.073360    L1
Au    10.220000    4.214657    19.073360    L1
Au    5.840000    11.801040    19.073360    L1
Au    14.600000    11.801040    19.073360    L1
Au    4.380000    4.214657    19.073360    L1
Au    13.140000    4.214657    19.073360    L1
Au    8.760000    11.801040    19.073360    L1
Au    17.520000    11.801040    19.073360    L1
Au    7.300000    4.214657    19.073360    L1
Au    16.059999    4.214657    19.073360    L1
Au    11.680000    11.801040    19.073360    L1
Au    20.440001    11.801040    19.073360    L1
Au    2.920000    6.743451    19.073360    L1
Au    11.680000    6.743451    19.073360    L1
Au    5.840000    6.743451    19.073360    L1
Au    14.600000    6.743451    19.073360    L1
Au    8.760000    6.743451    19.073360    L1
Au    17.520000    6.743451    19.073360    L1
Au    0.0000000000    0.0000000000    21.457530000000002    L0
Au    8.7600000000    0.0000000000    21.457530000000002    L0
Au    4.3800000000    7.5863820000    21.457530000000002    L0
Au    13.1400000000    7.5863820000    21.457530000000002    L0
Au    2.9200000000    0.0000000000    21.457530000000002    L0
Au    11.6800000000    0.0000000000    21.457530000000002    L0
Au    7.3000000000    7.5863820000    21.457530000000002    L0
Au    16.0599990000    7.5863820000    21.457530000000002    L0
Au    5.8400000000    0.0000000000    21.457530000000002    L0
Au    14.6000000000    0.0000000000    21.457530000000002    L0
Au    10.2200000000    7.5863820000    21.457530000000002    L0
Au    18.9800000000    7.5863820000    21.457530000000002    L0
Au    1.4600000000    2.5287940000    21.457530000000002    L0
Au    10.2200000000    2.5287940000    21.457530000000002    L0
Au    5.8400000000    10.1151760000    21.457530000000002    L0
Au    14.6000000000    10.1151760000    21.457530000000002    L0
Au    4.3800000000    2.5287940000    21.457530000000002    L0
Au    13.1400000000    2.5287940000    21.457530000000002    L0
Au    8.7600000000    10.1151760000    21.457530000000002    L0
Au    17.5200000000    10.1151760000    21.457530000000002    L0
Au    7.3000000000    2.5287940000    21.457530000000002    L0
Au    16.0599990000    2.5287940000    21.457530000000002    L0
Au    11.6800000000    10.1151760000    21.457530000000002    L0
Au    20.4400010000    10.1151760000    21.457530000000002    L0
Au    2.9200000000    5.0575880000    21.457530000000002    L0
Au    11.6800000000    5.0575880000    21.457530000000002    L0
Au    5.8400000000    5.0575880000    21.457530000000002    L0
Au    14.6000000000    5.0575880000    21.457530000000002    L0
Au    8.7600000000    5.0575880000    21.457530000000002    L0
Au    17.5200000000    5.0575880000    21.457530000000002    L0
Au    1.4600000000    0.8429310000    23.841700000000003    L0
Au    10.2200000000    0.8429310000    23.841700000000003    L0
Au    5.8400000000    8.4293140000    23.841700000000003    L0
Au    14.6000000000    8.4293140000    23.841700000000003    L0
Au    4.3800000000    0.8429310000    23.841700000000003    L0
Au    13.1400000000    0.8429310000    23.841700000000003    L0
Au    8.7600000000    8.4293140000    23.841700000000003    L0
Au    17.5200000000    8.4293140000    23.841700000000003    L0
Au    7.3000000000    0.8429310000    23.841700000000003    L0
Au    16.0599990000    0.8429310000    23.841700000000003    L0
Au    11.6800000000    8.4293140000    23.841700000000003    L0
Au    20.4400010000    8.4293140000    23.841700000000003    L0
Au    2.9200000000    3.3717260000    23.841700000000003    L0
Au    11.6800000000    3.3717260000    23.841700000000003    L0
Au    7.3000000000    10.9581080000    23.841700000000003    L0
Au    16.0599990000    10.9581080000    23.841700000000003    L0
Au    5.8400000000    3.3717260000    23.841700000000003    L0
Au    14.6000000000    3.3717260000    23.841700000000003    L0
Au    10.2200000000    10.9581080000    23.841700000000003    L0
Au    18.9800000000    10.9581080000    23.841700000000003    L0
Au    8.7600000000    3.3717260000    23.841700000000003    L0
Au    17.5200000000    3.3717260000    23.841700000000003    L0
Au    13.1400000000    10.9581080000    23.841700000000003    L0
Au    21.9000000000    10.9581080000    23.841700000000003    L0
Au    4.3800000000    5.9005200000    23.841700000000003    L0
Au    13.1400000000    5.9005200000    23.841700000000003    L0
Au    7.3000000000    5.9005200000    23.841700000000003    L0
Au    16.0599990000    5.9005200000    23.841700000000003    L0
Au    10.2200000000    5.9005200000    23.841700000000003    L0
Au    18.9800000000    5.9005200000    23.841700000000003    L0
Au    0.0000000000    1.6858630000    26.22587    L0
Au    8.7600000000    1.6858630000    26.22587    L0
Au    4.3800000000    9.2722450000    26.22587    L0
Au    13.1400000000    9.2722450000    26.22587    L0
Au    2.9200000000    1.6858630000    26.22587    L0
Au    11.6800000000    1.6858630000    26.22587    L0
Au    7.3000000000    9.2722450000    26.22587    L0
Au    16.0599990000    9.2722450000    26.22587    L0
Au    5.8400000000    1.6858630000    26.22587    L0
Au    14.6000000000    1.6858630000    26.22587    L0
Au    10.2200000000    9.2722450000    26.22587    L0
Au    18.9800000000    9.2722450000    26.22587    L0
Au    1.4600000000    4.2146570000    26.22587    L0
Au    10.2200000000    4.2146570000    26.22587    L0
Au    5.8400000000    11.8010400000    26.22587    L0
Au    14.6000000000    11.8010400000    26.22587    L0
Au    4.3800000000    4.2146570000    26.22587    L0
Au    13.1400000000    4.2146570000    26.22587    L0
Au    8.7600000000    11.8010400000    26.22587    L0
Au    17.5200000000    11.8010400000    26.22587    L0
Au    7.3000000000    4.2146570000    26.22587    L0
Au    16.0599990000    4.2146570000    26.22587    L0
Au    11.6800000000    11.8010400000    26.22587    L0
Au    20.4400010000    11.8010400000    26.22587    L0
Au    2.9200000000    6.7434510000    26.22587    L0
Au    11.6800000000    6.7434510000    26.22587    L0
Au    5.8400000000    6.7434510000    26.22587    L0
Au    14.6000000000    6.7434510000    26.22587    L0
Au    8.7600000000    6.7434510000    26.22587    L0
Au    17.5200000000    6.7434510000    26.22587    L0
H    11.3299006126    4.9751175993    32.6829209408    S
C    10.9809320965    5.6766986935    31.9223640161    S
C    10.9944547133    7.0524297990    32.189269952400004    S
C    10.5534959985    7.9321777277    31.186296824400003    S
H    10.5637841772    9.0068988705    31.3743173195    S
C    10.0682986534    7.4531991832    29.9712797766    S
H    9.7034491179    8.1460358318    29.2119382021    S
C    10.0137655585    6.0682839577    29.7331851255    S
C    10.5061447370    5.1826351299    30.708118472400002    S
H    10.4800840266    4.1082594868    30.525992437200003    S
C    11.4684701730    7.5680520118    33.5309889619    S
N    10.5074910558    8.5099030025    34.1386123556    S
H    12.4111849750    8.1239446669    33.4045336129    S
H    11.6905516297    6.7087185341    34.1912600303    S
C    10.9564488592    9.2170486628    35.3187359382    S
C    9.1953956980    7.9851104574    34.4564011204    S
C    8.1112577502    8.9051207904    42.1826156705    S
C    7.7128186058    7.6709206376    42.8166447258    S
C    8.9149768282    7.0084664913    43.36045645830001    S
C    10.0677013093    7.8364851292    42.935540219100005    S
C    9.5598419248    9.0044595965    42.2491660632    S
C    10.2730382341    9.5551262366    41.1762020382    S
C    11.5189984500    8.9562427894    40.7430601263    S
C    12.0016490476    7.8168288663    41.3995424454    S
C    11.2535420123    7.2442874173    42.5049634963    S
C    11.3580067761    5.7932680384    42.4049201929    S
C    10.2664961458    4.9847862333    42.735273539800005    S
C    9.0231792775    5.5859833987    43.180439970900004    S
C    7.9280011798    4.8215040985    42.6237372203    S
C    6.7705081965    5.4721856919    42.182046343    S
C    6.6626358537    6.9177357629    42.2767594855    S
C    5.9565023795    7.3908086575    41.1032512705    S
C    5.6274761622    6.2366106772    40.2816749357    S
C    6.1229135411    5.0474878739    40.9534117962    S
C    6.6619786598    3.9971781617    40.2046724218    S
C    7.8688841917    3.3237817671    40.660130762600005    S
C    8.4895789640    3.7302769480    41.8440775571    S
C    9.9357483152    3.8343750327    41.91079049060001    S
C    10.7087041367    3.5368538546    40.7849290499    S
C    11.8430587622    4.3776614306    40.4426841139    S
C    12.1692009023    5.4813804211    41.2444990445    S
C    12.5642221727    6.7297614645    40.621983758300004    S
C    12.6176986785    6.8274161834    39.2267777382    S
C    12.1124720723    8.0069270416    38.547115754400004    S
C    11.5880065333    9.0544258884    39.2962303727    S
C    10.3605754260    9.7062267253    38.82939377460001    S
C    9.7613674843    9.3153145556    37.64073022150001    S
C    10.4390637468    8.4134084111    36.6042796156    S
C    11.4899044285    7.5954234614    37.2951249323    S
C    11.5607157641    6.1980253204    37.226260902700005    S
C    12.2704893177    5.6914774051    38.405649705200005    S
C    11.8970338140    4.4904771722    39.0011743788    S
C    10.7907198324    3.7083205406    38.4462675554    S
C    10.0644273930    3.1184484571    39.5519205218    S
C    8.6686549714    3.0057362837    39.4909610492    S
C    7.9593811448    3.4760405820    38.3164768387    S
C    6.7193134916    4.0854075185    38.756278671800004    S
C    6.2479418756    5.2361979202    38.1084477663    S
C    5.6945050043    6.3281575090    38.8890132224    S
C    6.1008389482    7.5764577703    38.2661781126    S
C    6.9025892853    7.2678973616    37.104257412500004    S
C    6.9853887877    5.8066754902    36.9983609907    S
C    8.1825674111    5.2331728790    36.5833421723    S
C    8.6724677066    4.0411294541    37.2517960299    S
C    10.1090700622    4.1635371649    37.3228461131    S
C    10.4774570977    5.4331690296    36.6831313239    S
C    9.3207517954    6.0641102614    36.211792898700004    S
C    9.2045493184    7.5432251210    35.9918819291    S
C    7.9858827759    8.0613456511    36.7582887855    S
C    8.3338028150    9.1759734433    37.5909594787    S
C    7.5382192099    9.5084568287    38.7125730434    S
C    6.3982903454    8.6927270878    39.0550810938    S
C    6.3268532567    8.5975589718    40.5011058866    S
C    7.4270794886    9.3697791900    41.0508010343    S
C    8.1669063989    9.9349652479    39.9399817003    S
C    9.5624965148    10.0131236753    39.9963005257    S
H    8.9183657689    7.1617723637    33.788196419900004    S
H    8.4418522772    8.7810342294    34.3505474226    S
S    9.1246519457    5.3603813911    28.368904799000003    S
H    10.4907117826    10.2146507220    35.354432899200006    S
H    12.0455739883    9.3448459031    35.3244951296    S
Au    8.7768458809    6.7556041236    45.6031971491    R0
Au    0.0000000000    0.0000000000    47.9122294069    R0
Au    8.7600000000    0.0000000000    47.9122294069    R0
Au    4.3800000000    7.5863820000    47.9122294069    R0
Au    13.1400000000    7.5863820000    47.9122294069    R0
Au    2.9200000000    0.0000000000    47.9122294069    R0
Au    11.6800000000    0.0000000000    47.9122294069    R0
Au    7.3000000000    7.5863820000    47.9122294069    R0
Au    16.0599990000    7.5863820000    47.9122294069    R0
Au    5.8400000000    0.0000000000    47.9122294069    R0
Au    14.6000000000    0.0000000000    47.9122294069    R0
Au    10.2200000000    7.5863820000    47.9122294069    R0
Au    18.9800000000    7.5863820000    47.9122294069    R0
Au    1.4600000000    2.5287940000    47.9122294069    R0
Au    10.2200000000    2.5287940000    47.9122294069    R0
Au    5.8400000000    10.1151760000    47.9122294069    R0
Au    14.6000000000    10.1151760000    47.9122294069    R0
Au    4.3800000000    2.5287940000    47.9122294069    R0
Au    13.1400000000    2.5287940000    47.9122294069    R0
Au    8.7600000000    10.1151760000    47.9122294069    R0
Au    17.5200000000    10.1151760000    47.9122294069    R0
Au    7.3000000000    2.5287940000    47.9122294069    R0
Au    16.0599990000    2.5287940000    47.9122294069    R0
Au    11.6800000000    10.1151760000    47.9122294069    R0
Au    20.4400010000    10.1151760000    47.9122294069    R0
Au    2.9200000000    5.0575880000    47.9122294069    R0
Au    11.6800000000    5.0575880000    47.9122294069    R0
Au    5.8400000000    5.0575880000    47.9122294069    R0
Au    14.6000000000    5.0575880000    47.9122294069    R0
Au    8.7600000000    5.0575880000    47.9122294069    R0
Au    17.5200000000    5.0575880000    47.9122294069    R0
Au    1.4600000000    0.8429310000    50.2963994069    R0
Au    10.2200000000    0.8429310000    50.2963994069    R0
Au    5.8400000000    8.4293140000    50.2963994069    R0
Au    14.6000000000    8.4293140000    50.2963994069    R0
Au    4.3800000000    0.8429310000    50.2963994069    R0
Au    13.1400000000    0.8429310000    50.2963994069    R0
Au    8.7600000000    8.4293140000    50.2963994069    R0
Au    17.5200000000    8.4293140000    50.2963994069    R0
Au    7.3000000000    0.8429310000    50.2963994069    R0
Au    16.0599990000    0.8429310000    50.2963994069    R0
Au    11.6800000000    8.4293140000    50.2963994069    R0
Au    20.4400010000    8.4293140000    50.2963994069    R0
Au    2.9200000000    3.3717260000    50.2963994069    R0
Au    11.6800000000    3.3717260000    50.2963994069    R0
Au    7.3000000000    10.9581080000    50.2963994069    R0
Au    16.0599990000    10.9581080000    50.2963994069    R0
Au    5.8400000000    3.3717260000    50.2963994069    R0
Au    14.6000000000    3.3717260000    50.2963994069    R0
Au    10.2200000000    10.9581080000    50.2963994069    R0
Au    18.9800000000    10.9581080000    50.2963994069    R0
Au    8.7600000000    3.3717260000    50.2963994069    R0
Au    17.5200000000    3.3717260000    50.2963994069    R0
Au    13.1400000000    10.9581080000    50.2963994069    R0
Au    21.9000000000    10.9581080000    50.2963994069    R0
Au    4.3800000000    5.9005200000    50.2963994069    R0
Au    13.1400000000    5.9005200000    50.2963994069    R0
Au    7.3000000000    5.9005200000    50.2963994069    R0
Au    16.0599990000    5.9005200000    50.2963994069    R0
Au    10.2200000000    5.9005200000    50.2963994069    R0
Au    18.9800000000    5.9005200000    50.2963994069    R0
Au    0.0000000000    1.6858630000    52.680569406900005    R0
Au    8.7600000000    1.6858630000    52.680569406900005    R0
Au    4.3800000000    9.2722450000    52.680569406900005    R0
Au    13.1400000000    9.2722450000    52.680569406900005    R0
Au    2.9200000000    1.6858630000    52.680569406900005    R0
Au    11.6800000000    1.6858630000    52.680569406900005    R0
Au    7.3000000000    9.2722450000    52.680569406900005    R0
Au    16.0599990000    9.2722450000    52.680569406900005    R0
Au    5.8400000000    1.6858630000    52.680569406900005    R0
Au    14.6000000000    1.6858630000    52.680569406900005    R0
Au    10.2200000000    9.2722450000    52.680569406900005    R0
Au    18.9800000000    9.2722450000    52.680569406900005    R0
Au    1.4600000000    4.2146570000    52.680569406900005    R0
Au    10.2200000000    4.2146570000    52.680569406900005    R0
Au    5.8400000000    11.8010400000    52.680569406900005    R0
Au    14.6000000000    11.8010400000    52.680569406900005    R0
Au    4.3800000000    4.2146570000    52.680569406900005    R0
Au    13.1400000000    4.2146570000    52.680569406900005    R0
Au    8.7600000000    11.8010400000    52.680569406900005    R0
Au    17.5200000000    11.8010400000    52.680569406900005    R0
Au    7.3000000000    4.2146570000    52.680569406900005    R0
Au    16.0599990000    4.2146570000    52.680569406900005    R0
Au    11.6800000000    11.8010400000    52.680569406900005    R0
Au    20.4400010000    11.8010400000    52.680569406900005    R0
Au    2.9200000000    6.7434510000    52.680569406900005    R0
Au    11.6800000000    6.7434510000    52.680569406900005    R0
Au    5.8400000000    6.7434510000    52.680569406900005    R0
Au    14.6000000000    6.7434510000    52.680569406900005    R0
Au    8.7600000000    6.7434510000    52.680569406900005    R0
Au    17.5200000000    6.7434510000    52.680569406900005    R0
Au    0.000000    0.000000    55.064739406899996    R1
Au    8.760000    0.000000    55.064739406899996    R1
Au    4.380000    7.586382    55.064739406899996    R1
Au    13.140000    7.586382    55.064739406899996    R1
Au    2.920000    0.000000    55.064739406899996    R1
Au    11.680000    0.000000    55.064739406899996    R1
Au    7.300000    7.586382    55.064739406899996    R1
Au    16.059999    7.586382    55.064739406899996    R1
Au    5.840000    0.000000    55.064739406899996    R1
Au    14.600000    0.000000    55.064739406899996    R1
Au    10.220000    7.586382    55.064739406899996    R1
Au    18.980000    7.586382    55.064739406899996    R1
Au    1.460000    2.528794    55.064739406899996    R1
Au    10.220000    2.528794    55.064739406899996    R1
Au    5.840000    10.115176    55.064739406899996    R1
Au    14.600000    10.115176    55.064739406899996    R1
Au    4.380000    2.528794    55.064739406899996    R1
Au    13.140000    2.528794    55.064739406899996    R1
Au    8.760000    10.115176    55.064739406899996    R1
Au    17.520000    10.115176    55.064739406899996    R1
Au    7.300000    2.528794    55.064739406899996    R1
Au    16.059999    2.528794    55.064739406899996    R1
Au    11.680000    10.115176    55.064739406899996    R1
Au    20.440001    10.115176    55.064739406899996    R1
Au    2.920000    5.057588    55.064739406899996    R1
Au    11.680000    5.057588    55.064739406899996    R1
Au    5.840000    5.057588    55.064739406899996    R1
Au    14.600000    5.057588    55.064739406899996    R1
Au    8.760000    5.057588    55.064739406899996    R1
Au    17.520000    5.057588    55.064739406899996    R1
Au    1.460000    0.842931    57.4489094069    R1
Au    10.220000    0.842931    57.4489094069    R1
Au    5.840000    8.429314    57.4489094069    R1