     902
 i =       72, E =     -6434.2718402668
Au    0.000000    0.000000    0.000000    L3
Au    8.760000    0.000000    0.000000    L3
Au    4.380000    7.586382    0.000000    L3
Au    13.140000    7.586382    0.000000    L3
Au    2.920000    0.000000    0.000000    L3
Au    11.680000    0.000000    0.000000    L3
Au    7.300000    7.586382    0.000000    L3
Au    16.059999    7.586382    0.000000    L3
Au    5.840000    0.000000    0.000000    L3
Au    14.600000    0.000000    0.000000    L3
Au    10.220000    7.586382    0.000000    L3
Au    18.980000    7.586382    0.000000    L3
Au    1.460000    2.528794    0.000000    L3
Au    10.220000    2.528794    0.000000    L3
Au    5.840000    10.115176    0.000000    L3
Au    14.600000    10.115176    0.000000    L3
Au    4.380000    2.528794    0.000000    L3
Au    13.140000    2.528794    0.000000    L3
Au    8.760000    10.115176    0.000000    L3
Au    17.520000    10.115176    0.000000    L3
Au    7.300000    2.528794    0.000000    L3
Au    16.059999    2.528794    0.000000    L3
Au    11.680000    10.115176    0.000000    L3
Au    20.440001    10.115176    0.000000    L3
Au    2.920000    5.057588    0.000000    L3
Au    11.680000    5.057588    0.000000    L3
Au    5.840000    5.057588    0.000000    L3
Au    14.600000    5.057588    0.000000    L3
Au    8.760000    5.057588    0.000000    L3
Au    17.520000    5.057588    0.000000    L3
Au    1.460000    0.842931    2.384170    L3
Au    10.220000    0.842931    2.384170    L3
Au    5.840000    8.429314    2.384170    L3
Au    14.600000    8.429314    2.384170    L3
Au    4.380000    0.842931    2.384170    L3
Au    13.140000    0.842931    2.384170    L3
Au    8.760000    8.429314    2.384170    L3
Au    17.520000    8.429314    2.384170    L3
Au    7.300000    0.842931    2.384170    L3
Au    16.059999    0.842931    2.384170    L3
Au    11.680000    8.429314    2.384170    L3
Au    20.440001    8.429314    2.384170    L3
Au    2.920000    3.371726    2.384170    L3
Au    11.680000    3.371726    2.384170    L3
Au    7.300000    10.958108    2.384170    L3
Au    16.059999    10.958108    2.384170    L3
Au    5.840000    3.371726    2.384170    L3
Au    14.600000    3.371726    2.384170    L3
Au    10.220000    10.958108    2.384170    L3
Au    18.980000    10.958108    2.384170    L3
Au    8.760000    3.371726    2.384170    L3
Au    17.520000    3.371726    2.384170    L3
Au    13.140000    10.958108    2.384170    L3
Au    21.900000    10.958108    2.384170    L3
Au    4.380000    5.900520    2.384170    L3
Au    13.140000    5.900520    2.384170    L3
Au    7.300000    5.900520    2.384170    L3
Au    16.059999    5.900520    2.384170    L3
Au    10.220000    5.900520    2.384170    L3
Au    18.980000    5.900520    2.384170    L3
Au    0.000000    1.685863    4.768340    L3
Au    8.760000    1.685863    4.768340    L3
Au    4.380000    9.272245    4.768340    L3
Au    13.140000    9.272245    4.768340    L3
Au    2.920000    1.685863    4.768340    L3
Au    11.680000    1.685863    4.768340    L3
Au    7.300000    9.272245    4.768340    L3
Au    16.059999    9.272245    4.768340    L3
Au    5.840000    1.685863    4.768340    L3
Au    14.600000    1.685863    4.768340    L3
Au    10.220000    9.272245    4.768340    L3
Au    18.980000    9.272245    4.768340    L3
Au    1.460000    4.214657    4.768340    L3
Au    10.220000    4.214657    4.768340    L3
Au    5.840000    11.801040    4.768340    L3
Au    14.600000    11.801040    4.768340    L3
Au    4.380000    4.214657    4.768340    L3
Au    13.140000    4.214657    4.768340    L3
Au    8.760000    11.801040    4.768340    L3
Au    17.520000    11.801040    4.768340    L3
Au    7.300000    4.214657    4.768340    L3
Au    16.059999    4.214657    4.768340    L3
Au    11.680000    11.801040    4.768340    L3
Au    20.440001    11.801040    4.768340    L3
Au    2.920000    6.743451    4.768340    L3
Au    11.680000    6.743451    4.768340    L3
Au    5.840000    6.743451    4.768340    L3
Au    14.600000    6.743451    4.768340    L3
Au    8.760000    6.743451    4.768340    L3
Au    17.520000    6.743451    4.768340    L3
Au    0.000000    0.000000    7.152510    L2
Au    8.760000    0.000000    7.152510    L2
Au    4.380000    7.586382    7.152510    L2
Au    13.140000    7.586382    7.152510    L2
Au    2.920000    0.000000    7.152510    L2
Au    11.680000    0.000000    7.152510    L2
Au    7.300000    7.586382    7.152510    L2
Au    16.059999    7.586382    7.152510    L2
Au    5.840000    0.000000    7.152510    L2
Au    14.600000    0.000000    7.152510    L2
Au    10.220000    7.586382    7.152510    L2
Au    18.980000    7.586382    7.152510    L2
Au    1.460000    2.528794    7.152510    L2
Au    10.220000    2.528794    7.152510    L2
Au    5.840000    10.115176    7.152510    L2
Au    14.600000    10.115176    7.152510    L2
Au    4.380000    2.528794    7.152510    L2
Au    13.140000    2.528794    7.152510    L2
Au    8.760000    10.115176    7.152510    L2
Au    17.520000    10.115176    7.152510    L2
Au    7.300000    2.528794    7.152510    L2
Au    16.059999    2.528794    7.152510    L2
Au    11.680000    10.115176    7.152510    L2
Au    20.440001    10.115176    7.152510    L2
Au    2.920000    5.057588    7.152510    L2
Au    11.680000    5.057588    7.152510    L2
Au    5.840000    5.057588    7.152510    L2
Au    14.600000    5.057588    7.152510    L2
Au    8.760000    5.057588    7.152510    L2
Au    17.520000    5.057588    7.152510    L2
Au    1.460000    0.842931    9.536680    L2
Au    10.220000    0.842931    9.536680    L2
Au    5.840000    8.429314    9.536680    L2
Au    14.600000    8.429314    9.536680    L2
Au    4.380000    0.842931    9.536680    L2
Au    13.140000    0.842931    9.536680    L2
Au    8.760000    8.429314    9.536680    L2
Au    17.520000    8.429314    9.536680    L2
Au    7.300000    0.842931    9.536680    L2
Au    16.059999    0.842931    9.536680    L2
Au    11.680000    8.429314    9.536680    L2
Au    20.440001    8.429314    9.536680    L2
Au    2.920000    3.371726    9.536680    L2
Au    11.680000    3.371726    9.536680    L2
Au    7.300000    10.958108    9.536680    L2
Au    16.059999    10.958108    9.536680    L2
Au    5.840000    3.371726    9.536680    L2
Au    14.600000    3.371726    9.536680    L2
Au    10.220000    10.958108    9.536680    L2
Au    18.980000    10.958108    9.536680    L2
Au    8.760000    3.371726    9.536680    L2
Au    17.520000    3.371726    9.536680    L2
Au    13.140000    10.958108    9.536680    L2
Au    21.900000    10.958108    9.536680    L2
Au    4.380000    5.900520    9.536680    L2
Au    13.140000    5.900520    9.536680    L2
Au    7.300000    5.900520    9.536680    L2
Au    16.059999    5.900520    9.536680    L2
Au    10.220000    5.900520    9.536680    L2
Au    18.980000    5.900520    9.536680    L2
Au    0.000000    1.685863    11.920850    L2
Au    8.760000    1.685863    11.920850    L2
Au    4.380000    9.272245    11.920850    L2
Au    13.140000    9.272245    11.920850    L2
Au    2.920000    1.685863    11.920850    L2
Au    11.680000    1.685863    11.920850    L2
Au    7.300000    9.272245    11.920850    L2
Au    16.059999    9.272245    11.920850    L2
Au    5.840000    1.685863    11.920850    L2
Au    14.600000    1.685863    11.920850    L2
Au    10.220000    9.272245    11.920850    L2
Au    18.980000    9.272245    11.920850    L2
Au    1.460000    4.214657    11.920850    L2
Au    10.220000    4.214657    11.920850    L2
Au    5.840000    11.801040    11.920850    L2
Au    14.600000    11.801040    11.920850    L2
Au    4.380000    4.214657    11.920850    L2
Au    13.140000    4.214657    11.920850    L2
Au    8.760000    11.801040    11.920850    L2
Au    17.520000    11.801040    11.920850    L2
Au    7.300000    4.214657    11.920850    L2
Au    16.059999    4.214657    11.920850    L2
Au    11.680000    11.801040    11.920850    L2
Au    20.440001    11.801040    11.920850    L2
Au    2.920000    6.743451    11.920850    L2
Au    11.680000    6.743451    11.920850    L2
Au    5.840000    6.743451    11.920850    L2
Au    14.600000    6.743451    11.920850    L2
Au    8.760000    6.743451    11.920850    L2
Au    17.520000    6.743451    11.920850    L2
Au    0.000000    0.000000    14.305019    L1
Au    8.760000    0.000000    14.305019    L1
Au    4.380000    7.586382    14.305019    L1
Au    13.140000    7.586382    14.305019    L1
Au    2.920000    0.000000    14.305019    L1
Au    11.680000    0.000000    14.305019    L1
Au    7.300000    7.586382    14.305019    L1
Au    16.059999    7.586382    14.305019    L1
Au    5.840000    0.000000    14.305019    L1
Au    14.600000    0.000000    14.305019    L1
Au    10.220000    7.586382    14.305019    L1
Au    18.980000    7.586382    14.305019    L1
Au    1.460000    2.528794    14.305019    L1
Au    10.220000    2.528794    14.305019    L1
Au    5.840000    10.115176    14.305019    L1
Au    14.600000    10.115176    14.305019    L1
Au    4.380000    2.528794    14.305019    L1
Au    13.140000    2.528794    14.305019    L1
Au    8.760000    10.115176    14.305019    L1
Au    17.520000    10.115176    14.305019    L1
Au    7.300000    2.528794    14.305019    L1
Au    16.059999    2.528794    14.305019    L1
Au    11.680000    10.115176    14.305019    L1
Au    20.440001    10.115176    14.305019    L1
Au    2.920000    5.057588    14.305019    L1
Au    11.680000    5.057588    14.305019    L1
Au    5.840000    5.057588    14.305019    L1
Au    14.600000    5.057588    14.305019    L1
Au    8.760000    5.057588    14.305019    L1
Au    17.520000    5.057588    14.305019    L1
Au    1.460000    0.842931    16.689190    L1
Au    10.220000    0.842931    16.689190    L1
Au    5.840000    8.429314    16.689190    L1
Au    14.600000    8.429314    16.689190    L1
Au    4.380000    0.842931    16.689190    L1
Au    13.140000    0.842931    16.689190    L1
Au    8.760000    8.429314    16.689190    L1
Au    17.520000    8.429314    16.689190    L1
Au    7.300000    0.842931    16.689190    L1
Au    16.059999    0.842931    16.689190    L1
Au    11.680000    8.429314    16.689190    L1
Au    20.440001    8.429314    16.689190    L1
Au    2.920000    3.371726    16.689190    L1
Au    11.680000    3.371726    16.689190    L1
Au    7.300000    10.958108    16.689190    L1
Au    16.059999    10.958108    16.689190    L1
Au    5.840000    3.371726    16.689190    L1
Au    14.600000    3.371726    16.689190    L1
Au    10.220000    10.958108    16.689190    L1
Au    18.980000    10.958108    16.689190    L1
Au    8.760000    3.371726    16.689190    L1
Au    17.520000    3.371726    16.689190    L1
Au    13.140000    10.958108    16.689190    L1
Au    21.900000    10.958108    16.689190    L1
Au    4.380000    5.900520    16.689190    L1
Au    13.140000    5.900520    16.689190    L1
Au    7.300000    5.900520    16.689190    L1
Au    16.059999    5.900520    16.689190    L1
Au    10.220000    5.900520    16.689190    L1
Au    18.980000    5.900520    16.689190    L1
Au    0.000000    1.685863    19.073360    L1
Au    8.760000    1.685863    19.073360    L1
Au    4.380000    9.272245    19.073360    L1
Au    13.140000    9.272245    19.073360    L1
Au    2.920000    1.685863    19.073360    L1
Au    11.680000    1.685863    19.073360    L1
Au    7.300000    9.272245    19.073360    L1
Au    16.059999    9.272245    19.073360    L1
Au    5.840000    1.685863    19.073360    L1
Au    14.600000    1.685863    19.073360    L1
Au    10.220000    9.272245    19.073360    L1
Au    18.980000    9.272245    19.073360    L1
Au    1.460000    4.214657    19.073360    L1
Au    10.220000    4.214657    19.073360    L1
Au    5.840000    11.801040    19.073360    L1
Au    14.600000    11.801040    19.073360    L1
Au    4.380000    4.214657    19.073360    L1
Au    13.140000    4.214657    19.073360    L1
Au    8.760000    11.801040    19.073360    L1
Au    17.520000    11.801040    19.073360    L1
Au    7.300000    4.214657    19.073360    L1
Au    16.059999    4.214657    19.073360    L1
Au    11.680000    11.801040    19.073360    L1
Au    20.440001    11.801040    19.073360    L1
Au    2.920000    6.743451    19.073360    L1
Au    11.680000    6.743451    19.073360    L1
Au    5.840000    6.743451    19.073360    L1
Au    14.600000    6.743451    19.073360    L1
Au    8.760000    6.743451    19.073360    L1
Au    17.520000    6.743451    19.073360    L1
Au    0.0000000000    0.0000000000    21.457530000000002    L0
Au    8.7600000000    0.0000000000    21.457530000000002    L0
Au    4.3800000000    7.5863820000    21.457530000000002    L0
Au    13.1400000000    7.5863820000    21.457530000000002    L0
Au    2.9200000000    0.0000000000    21.457530000000002    L0
Au    11.6800000000    0.0000000000    21.457530000000002    L0
Au    7.3000000000    7.5863820000    21.457530000000002    L0
Au    16.0599990000    7.5863820000    21.457530000000002    L0
Au    5.8400000000    0.0000000000    21.457530000000002    L0
Au    14.6000000000    0.0000000000    21.457530000000002    L0
Au    10.2200000000    7.5863820000    21.457530000000002    L0
Au    18.9800000000    7.5863820000    21.457530000000002    L0
Au    1.4600000000    2.5287940000    21.457530000000002    L0
Au    10.2200000000    2.5287940000    21.457530000000002    L0
Au    5.8400000000    10.1151760000    21.457530000000002    L0
Au    14.6000000000    10.1151760000    21.457530000000002    L0
Au    4.3800000000    2.5287940000    21.457530000000002    L0
Au    13.1400000000    2.5287940000    21.457530000000002    L0
Au    8.7600000000    10.1151760000    21.457530000000002    L0
Au    17.5200000000    10.1151760000    21.457530000000002    L0
Au    7.3000000000    2.5287940000    21.457530000000002    L0
Au    16.0599990000    2.5287940000    21.457530000000002    L0
Au    11.6800000000    10.1151760000    21.457530000000002    L0
Au    20.4400010000    10.1151760000    21.457530000000002    L0
Au    2.9200000000    5.0575880000    21.457530000000002    L0
Au    11.6800000000    5.0575880000    21.457530000000002    L0
Au    5.8400000000    5.0575880000    21.457530000000002    L0
Au    14.6000000000    5.0575880000    21.457530000000002    L0
Au    8.7600000000    5.0575880000    21.457530000000002    L0
Au    17.5200000000    5.0575880000    21.457530000000002    L0
Au    1.4600000000    0.8429310000    23.841700000000003    L0
Au    10.2200000000    0.8429310000    23.841700000000003    L0
Au    5.8400000000    8.4293140000    23.841700000000003    L0
Au    14.6000000000    8.4293140000    23.841700000000003    L0
Au    4.3800000000    0.8429310000    23.841700000000003    L0
Au    13.1400000000    0.8429310000    23.841700000000003    L0
Au    8.7600000000    8.4293140000    23.841700000000003    L0
Au    17.5200000000    8.4293140000    23.841700000000003    L0
Au    7.3000000000    0.8429310000    23.841700000000003    L0
Au    16.0599990000    0.8429310000    23.841700000000003    L0
Au    11.6800000000    8.4293140000    23.841700000000003    L0
Au    20.4400010000    8.4293140000    23.841700000000003    L0
Au    2.9200000000    3.3717260000    23.841700000000003    L0
Au    11.6800000000    3.3717260000    23.841700000000003    L0
Au    7.3000000000    10.9581080000    23.841700000000003    L0
Au    16.0599990000    10.9581080000    23.841700000000003    L0
Au    5.8400000000    3.3717260000    23.841700000000003    L0
Au    14.6000000000    3.3717260000    23.841700000000003    L0
Au    10.2200000000    10.9581080000    23.841700000000003    L0
Au    18.9800000000    10.9581080000    23.841700000000003    L0
Au    8.7600000000    3.3717260000    23.841700000000003    L0
Au    17.5200000000    3.3717260000    23.841700000000003    L0
Au    13.1400000000    10.9581080000    23.841700000000003    L0
Au    21.9000000000    10.9581080000    23.841700000000003    L0
Au    4.3800000000    5.9005200000    23.841700000000003    L0
Au    13.1400000000    5.9005200000    23.841700000000003    L0
Au    7.3000000000    5.9005200000    23.841700000000003    L0
Au    16.0599990000    5.9005200000    23.841700000000003    L0
Au    10.2200000000    5.9005200000    23.841700000000003    L0
Au    18.9800000000    5.9005200000    23.841700000000003    L0
Au    0.0000000000    1.6858630000    26.22587    L0
Au    8.7600000000    1.6858630000    26.22587    L0
Au    4.3800000000    9.2722450000    26.22587    L0
Au    13.1400000000    9.2722450000    26.22587    L0
Au    2.9200000000    1.6858630000    26.22587    L0
Au    11.6800000000    1.6858630000    26.22587    L0
Au    7.3000000000    9.2722450000    26.22587    L0
Au    16.0599990000    9.2722450000    26.22587    L0
Au    5.8400000000    1.6858630000    26.22587    L0
Au    14.6000000000    1.6858630000    26.22587    L0
Au    10.2200000000    9.2722450000    26.22587    L0
Au    18.9800000000    9.2722450000    26.22587    L0
Au    1.4600000000    4.2146570000    26.22587    L0
Au    10.2200000000    4.2146570000    26.22587    L0
Au    5.8400000000    11.8010400000    26.22587    L0
Au    14.6000000000    11.8010400000    26.22587    L0
Au    4.3800000000    4.2146570000    26.22587    L0
Au    13.1400000000    4.2146570000    26.22587    L0
Au    8.7600000000    11.8010400000    26.22587    L0
Au    17.5200000000    11.8010400000    26.22587    L0
Au    7.3000000000    4.2146570000    26.22587    L0
Au    16.0599990000    4.2146570000    26.22587    L0
Au    11.6800000000    11.8010400000    26.22587    L0
Au    20.4400010000    11.8010400000    26.22587    L0
Au    2.9200000000    6.7434510000    26.22587    L0
Au    11.6800000000    6.7434510000    26.22587    L0
Au    5.8400000000    6.7434510000    26.22587    L0
Au    14.6000000000    6.7434510000    26.22587    L0
Au    8.7600000000    6.7434510000    26.22587    L0
Au    17.5200000000    6.7434510000    26.22587    L0
H    10.9818744204    4.4260845539    32.7774497439    S
C    10.5997513510    5.2056276176    32.114463418300005    S
C    10.4341630465    6.5107753108    32.601010424500004    S
C    9.9493797805    7.4902730348    31.7182004326    S
H    9.8160294637    8.5121539265    32.0766699068    S
C    9.6112207957    7.1744036360    30.4019679835    S
H    9.2182682054    7.9433790434    29.736241182300002    S
C    9.7478411938    5.8538331893    29.9353515843    S
C    10.2724335437    4.8750773825    30.799918421600005    S
H    10.3898564667    3.8502168552    30.447838292    S
C    10.8293503998    6.8433561421    34.0309025309    S
N    9.9021333251    7.7731912544    34.694119403    S
H    11.8167363272    7.3316970989    34.023105599400004    S
H    10.9496847860    5.8996076367    34.5971628672    S
C    10.4048061279    8.5748927411    35.787517925100005    S
C    8.6252481318    7.2364955608    35.1165286981    S
C    7.8762408644    8.8491228778    42.7786713865    S
C    7.5363188360    7.6712700922    43.5429345856    S
C    8.7764781046    7.0833934295    44.0761388859    S
C    9.8885599119    7.8904544843    43.5334939341    S
C    9.3238191976    8.9810811337    42.7664761655    S
C    9.9737211075    9.4414757324    41.614016583    S
C    11.2116472990    8.8277872627    41.1783322232    S
C    11.7499248261    7.7635817410    41.9132522199    S
C    11.0662080495    7.2821004623    43.1009713456    S
C    11.1996161613    5.8301595862    43.1304886296    S
C    10.1455464685    5.0353742088    43.587347211    S
C    8.9087803221    5.6513411073    44.048871309700004    S
C    7.8046215845    4.8184506787    43.6037081686    S
C    6.6161189755    5.4048229722    43.1580744991    S
C    6.4805606221    6.8513896228    43.123909545000004    S
C    5.7107853634    7.2002948842    41.946639473800005    S
C    5.3710896810    5.9693545600    41.2506843164    S
C    5.9235068513    4.8570803491    42.00437504920001    S
C    6.4504760423    3.7521553690    41.33003696    S
C    7.6916252670    3.1476935796    41.786947804600004    S
C    8.3561584121    3.6745602602    42.8983634391    S
C    9.8012521198    3.8114912271    42.885680530100004    S
C    10.5281566722    3.4244127793    41.7553571072    S
C    11.6260932531    4.2493739019    41.2836054531    S
C    11.9627433830    5.4278674508    41.964575958    S
C    12.3002349643    6.6200765746    41.2120117546    S
C    12.2877641225    6.5887691338    39.81249477910001    S
C    11.7243646568    7.6904381921    39.05266172580001    S
C    11.2121706450    8.7933168292    39.727077246600004    S
C    9.9502581224    9.3757912040    39.2609210528    S
C    9.3065875426    8.8654913702    38.1422750559    S
C    9.9569285092    7.8843607615    37.1607668729    S
C    11.0556115397    7.1537348936    37.874219886000006    S
C    11.1565006482    5.7578935760    37.9282886802    S
C    11.9305714456    5.3757289860    39.115605287    S
C    11.6117760203    4.2291635316    39.836198306    S
C    10.4988335447    3.3794507821    39.4089664717    S
C    9.8378214711    2.8818870147    40.5981220222    S
C    8.4440793800    2.7378399686    40.614733052700004    S
C    7.6714653273    3.0834494777    39.437022216900004    S
C    6.4392395896    3.7070631614    39.877806646500005    S
C    5.9128600542    4.7835833338    39.1503906242    S
C    5.3720425184    5.9326583001    39.8536503726    S
C    5.7208452629    7.1248580897    39.09985534250001    S
C    6.4743677044    6.7253320634    37.9331524129    S
C    6.5850672772    5.2623751353    37.9580261661    S
C    7.7745145653    4.6754529801    37.5398170366    S
C    8.3217073390    3.5605080959    38.291556268600004    S
C    9.7566002087    3.7153489197    38.281797291100006    S
C    10.0665375941    4.9265435030    37.509659463700004    S
C    8.8753253828    5.4889886292    37.0367761947    S
C    8.7154749949    6.9398228598    36.6864176    S
C    7.5214449730    7.5037101818    37.4622585314    S
C    7.8821771490    8.6955823675    38.174116080800005    S
C    7.1318256187    9.1159615665    39.2980075676    S
C    6.0282898180    8.3145212428    39.76826272940001    S
C    6.0256675417    8.3523218299    41.2188512043    S
C    7.1313190549    9.1930101763    41.6423853976    S
C    7.8059297733    9.6661672279    40.4495662217    S
C    9.2000693747    9.7750789918    40.431590592000006    S
H    8.3578343537    6.3426073097    34.5402441728    S
H    7.8307022822    7.9854731710    34.9721337529    S
S    9.0521009092    5.3131138337    28.3889471644    S
H    9.9402699944    9.5740613745    35.7670635061    S
H    11.4923935361    8.7020038011    35.7277524238    S
Au    8.7768458809    6.7556041236    46.36046    R0
Au    0.0000000000    0.0000000000    48.6694922578    R0
Au    8.7600000000    0.0000000000    48.6694922578    R0
Au    4.3800000000    7.5863820000    48.6694922578    R0
Au    13.1400000000    7.5863820000    48.6694922578    R0
Au    2.9200000000    0.0000000000    48.6694922578    R0
Au    11.6800000000    0.0000000000    48.6694922578    R0
Au    7.3000000000    7.5863820000    48.6694922578    R0
Au    16.0599990000    7.5863820000    48.6694922578    R0
Au    5.8400000000    0.0000000000    48.6694922578    R0
Au    14.6000000000    0.0000000000    48.6694922578    R0
Au    10.2200000000    7.5863820000    48.6694922578    R0
Au    18.9800000000    7.5863820000    48.6694922578    R0
Au    1.4600000000    2.5287940000    48.6694922578    R0
Au    10.2200000000    2.5287940000    48.6694922578    R0
Au    5.8400000000    10.1151760000    48.6694922578    R0
Au    14.6000000000    10.1151760000    48.6694922578    R0
Au    4.3800000000    2.5287940000    48.6694922578    R0
Au    13.1400000000    2.5287940000    48.6694922578    R0
Au    8.7600000000    10.1151760000    48.6694922578    R0
Au    17.5200000000    10.1151760000    48.6694922578    R0
Au    7.3000000000    2.5287940000    48.6694922578    R0
Au    16.0599990000    2.5287940000    48.6694922578    R0
Au    11.6800000000    10.1151760000    48.6694922578    R0
Au    20.4400010000    10.1151760000    48.6694922578    R0
Au    2.9200000000    5.0575880000    48.6694922578    R0
Au    11.6800000000    5.0575880000    48.6694922578    R0
Au    5.8400000000    5.0575880000    48.6694922578    R0
Au    14.6000000000    5.0575880000    48.6694922578    R0
Au    8.7600000000    5.0575880000    48.6694922578    R0
Au    17.5200000000    5.0575880000    48.6694922578    R0
Au    1.4600000000    0.8429310000    51.0536622578    R0
Au    10.2200000000    0.8429310000    51.0536622578    R0
Au    5.8400000000    8.4293140000    51.0536622578    R0
Au    14.6000000000    8.4293140000    51.0536622578    R0
Au    4.3800000000    0.8429310000    51.0536622578    R0
Au    13.1400000000    0.8429310000    51.0536622578    R0
Au    8.7600000000    8.4293140000    51.0536622578    R0
Au    17.5200000000    8.4293140000    51.0536622578    R0
Au    7.3000000000    0.8429310000    51.0536622578    R0
Au    16.0599990000    0.8429310000    51.0536622578    R0
Au    11.6800000000    8.4293140000    51.0536622578    R0
Au    20.4400010000    8.4293140000    51.0536622578    R0
Au    2.9200000000    3.3717260000    51.0536622578    R0
Au    11.6800000000    3.3717260000    51.0536622578    R0
Au    7.3000000000    10.9581080000    51.0536622578    R0
Au    16.0599990000    10.9581080000    51.0536622578    R0
Au    5.8400000000    3.3717260000    51.0536622578    R0
Au    14.6000000000    3.3717260000    51.0536622578    R0
Au    10.2200000000    10.9581080000    51.0536622578    R0
Au    18.9800000000    10.9581080000    51.0536622578    R0
Au    8.7600000000    3.3717260000    51.0536622578    R0
Au    17.5200000000    3.3717260000    51.0536622578    R0
Au    13.1400000000    10.9581080000    51.0536622578    R0
Au    21.9000000000    10.9581080000    51.0536622578    R0
Au    4.3800000000    5.9005200000    51.0536622578    R0
Au    13.1400000000    5.9005200000    51.0536622578    R0
Au    7.3000000000    5.9005200000    51.0536622578    R0
Au    16.0599990000    5.9005200000    51.0536622578    R0
Au    10.2200000000    5.9005200000    51.0536622578    R0
Au    18.9800000000    5.9005200000    51.0536622578    R0
Au    0.0000000000    1.6858630000    53.4378322578    R0
Au    8.7600000000    1.6858630000    53.4378322578    R0
Au    4.3800000000    9.2722450000    53.4378322578    R0
Au    13.1400000000    9.2722450000    53.4378322578    R0
Au    2.9200000000    1.6858630000    53.4378322578    R0
Au    11.6800000000    1.6858630000    53.4378322578    R0
Au    7.3000000000    9.2722450000    53.4378322578    R0
Au    16.0599990000    9.2722450000    53.4378322578    R0
Au    5.8400000000    1.6858630000    53.4378322578    R0
Au    14.6000000000    1.6858630000    53.4378322578    R0
Au    10.2200000000    9.2722450000    53.4378322578    R0
Au    18.9800000000    9.2722450000    53.4378322578    R0
Au    1.4600000000    4.2146570000    53.4378322578    R0
Au    10.2200000000    4.2146570000    53.4378322578    R0
Au    5.8400000000    11.8010400000    53.4378322578    R0
Au    14.6000000000    11.8010400000    53.4378322578    R0
Au    4.3800000000    4.2146570000    53.4378322578    R0
Au    13.1400000000    4.2146570000    53.4378322578    R0
Au    8.7600000000    11.8010400000    53.4378322578    R0
Au    17.5200000000    11.8010400000    53.4378322578    R0
Au    7.3000000000    4.2146570000    53.4378322578    R0
Au    16.0599990000    4.2146570000    53.4378322578    R0
Au    11.6800000000    11.8010400000    53.4378322578    R0
Au    20.4400010000    11.8010400000    53.4378322578    R0
Au    2.9200000000    6.7434510000    53.4378322578    R0
Au    11.6800000000    6.7434510000    53.4378322578    R0
Au    5.8400000000    6.7434510000    53.4378322578    R0
Au    14.6000000000    6.7434510000    53.4378322578    R0
Au    8.7600000000    6.7434510000    53.4378322578    R0
Au    17.5200000000    6.7434510000    53.4378322578    R0
Au    0.000000    0.000000    55.8220022578    R1
Au    8.760000    0.000000    55.8220022578    R1
Au    4.380000    7.586382    55.8220022578    R1
Au    13.140000    7.586382    55.8220022578    R1
Au    2.920000    0.000000    55.8220022578    R1
Au    11.680000    0.000000    55.8220022578    R1
Au    7.300000    7.586382    55.8220022578    R1
Au    16.059999    7.586382    55.8220022578    R1
Au    5.840000    0.000000    55.8220022578    R1
Au    14.600000    0.000000    55.8220022578    R1
Au    10.220000    7.586382    55.8220022578    R1
Au    18.980000    7.586382    55.8220022578    R1
Au    1.460000    2.528794    55.8220022578    R1
Au    10.220000    2.528794    55.8220022578    R1
Au    5.840000    10.115176    55.8220022578    R1
Au    14.600000    10.115176    55.8220022578    R1
Au    4.380000    2.528794    55.8220022578    R1
Au    13.140000    2.528794    55.8220022578    R1
Au    8.760000    10.115176    55.8220022578    R1
Au    17.520000    10.115176    55.8220022578    R1
Au    7.300000    2.528794    55.8220022578    R1
Au    16.059999    2.528794    55.8220022578    R1
Au    11.680000    10.115176    55.8220022578    R1
Au    20.440001    10.115176    55.8220022578    R1
Au    2.920000    5.057588    55.8220022578    R1
Au    11.680000    5.057588    55.8220022578    R1
Au    5.840000    5.057588    55.8220022578    R1
Au    14.600000    5.057588    55.8220022578    R1
Au    8.760000    5.057588    55.8220022578    R1
Au    17.520000    5.057588    55.8220022578    R1
Au    1.460000    0.842931    58.206172257800006    R1
Au    10.220000    0.842931    58.206172257800006    R1
Au    5.840000    8.429314    58.206172257800006    R1
Au    14.600000    8.429314    58.206172257800006    R1
Au    4.380000    0.842931    58.206172257800006    R1
Au    13.140000    0.842931    58.206172257800006    R1
Au    8.760000    8.429314    58.206172257800006    R1
Au    17.520000    8.429314    58.206172257800006    R1