     902
 i =       72, E =     -6434.2718402668
Au    0.000000    0.000000    0.000000    L3
Au    8.760000    0.000000    0.000000    L3
Au    4.380000    7.586382    0.000000    L3
Au    13.140000    7.586382    0.000000    L3
Au    2.920000    0.000000    0.000000    L3
Au    11.680000    0.000000    0.000000    L3
Au    7.300000    7.586382    0.000000    L3
Au    16.059999    7.586382    0.000000    L3
Au    5.840000    0.000000    0.000000    L3
Au    14.600000    0.000000    0.000000    L3
Au    10.220000    7.586382    0.000000    L3
Au    18.980000    7.586382    0.000000    L3
Au    1.460000    2.528794    0.000000    L3
Au    10.220000    2.528794    0.000000    L3
Au    5.840000    10.115176    0.000000    L3
Au    14.600000    10.115176    0.000000    L3
Au    4.380000    2.528794    0.000000    L3
Au    13.140000    2.528794    0.000000    L3
Au    8.760000    10.115176    0.000000    L3
Au    17.520000    10.115176    0.000000    L3
Au    7.300000    2.528794    0.000000    L3
Au    16.059999    2.528794    0.000000    L3
Au    11.680000    10.115176    0.000000    L3
Au    20.440001    10.115176    0.000000    L3
Au    2.920000    5.057588    0.000000    L3
Au    11.680000    5.057588    0.000000    L3
Au    5.840000    5.057588    0.000000    L3
Au    14.600000    5.057588    0.000000    L3
Au    8.760000    5.057588    0.000000    L3
Au    17.520000    5.057588    0.000000    L3
Au    1.460000    0.842931    2.384170    L3
Au    10.220000    0.842931    2.384170    L3
Au    5.840000    8.429314    2.384170    L3
Au    14.600000    8.429314    2.384170    L3
Au    4.380000    0.842931    2.384170    L3
Au    13.140000    0.842931    2.384170    L3
Au    8.760000    8.429314    2.384170    L3
Au    17.520000    8.429314    2.384170    L3
Au    7.300000    0.842931    2.384170    L3
Au    16.059999    0.842931    2.384170    L3
Au    11.680000    8.429314    2.384170    L3
Au    20.440001    8.429314    2.384170    L3
Au    2.920000    3.371726    2.384170    L3
Au    11.680000    3.371726    2.384170    L3
Au    7.300000    10.958108    2.384170    L3
Au    16.059999    10.958108    2.384170    L3
Au    5.840000    3.371726    2.384170    L3
Au    14.600000    3.371726    2.384170    L3
Au    10.220000    10.958108    2.384170    L3
Au    18.980000    10.958108    2.384170    L3
Au    8.760000    3.371726    2.384170    L3
Au    17.520000    3.371726    2.384170    L3
Au    13.140000    10.958108    2.384170    L3
Au    21.900000    10.958108    2.384170    L3
Au    4.380000    5.900520    2.384170    L3
Au    13.140000    5.900520    2.384170    L3
Au    7.300000    5.900520    2.384170    L3
Au    16.059999    5.900520    2.384170    L3
Au    10.220000    5.900520    2.384170    L3
Au    18.980000    5.900520    2.384170    L3
Au    0.000000    1.685863    4.768340    L3
Au    8.760000    1.685863    4.768340    L3
Au    4.380000    9.272245    4.768340    L3
Au    13.140000    9.272245    4.768340    L3
Au    2.920000    1.685863    4.768340    L3
Au    11.680000    1.685863    4.768340    L3
Au    7.300000    9.272245    4.768340    L3
Au    16.059999    9.272245    4.768340    L3
Au    5.840000    1.685863    4.768340    L3
Au    14.600000    1.685863    4.768340    L3
Au    10.220000    9.272245    4.768340    L3
Au    18.980000    9.272245    4.768340    L3
Au    1.460000    4.214657    4.768340    L3
Au    10.220000    4.214657    4.768340    L3
Au    5.840000    11.801040    4.768340    L3
Au    14.600000    11.801040    4.768340    L3
Au    4.380000    4.214657    4.768340    L3
Au    13.140000    4.214657    4.768340    L3
Au    8.760000    11.801040    4.768340    L3
Au    17.520000    11.801040    4.768340    L3
Au    7.300000    4.214657    4.768340    L3
Au    16.059999    4.214657    4.768340    L3
Au    11.680000    11.801040    4.768340    L3
Au    20.440001    11.801040    4.768340    L3
Au    2.920000    6.743451    4.768340    L3
Au    11.680000    6.743451    4.768340    L3
Au    5.840000    6.743451    4.768340    L3
Au    14.600000    6.743451    4.768340    L3
Au    8.760000    6.743451    4.768340    L3
Au    17.520000    6.743451    4.768340    L3
Au    0.000000    0.000000    7.152510    L2
Au    8.760000    0.000000    7.152510    L2
Au    4.380000    7.586382    7.152510    L2
Au    13.140000    7.586382    7.152510    L2
Au    2.920000    0.000000    7.152510    L2
Au    11.680000    0.000000    7.152510    L2
Au    7.300000    7.586382    7.152510    L2
Au    16.059999    7.586382    7.152510    L2
Au    5.840000    0.000000    7.152510    L2
Au    14.600000    0.000000    7.152510    L2
Au    10.220000    7.586382    7.152510    L2
Au    18.980000    7.586382    7.152510    L2
Au    1.460000    2.528794    7.152510    L2
Au    10.220000    2.528794    7.152510    L2
Au    5.840000    10.115176    7.152510    L2
Au    14.600000    10.115176    7.152510    L2
Au    4.380000    2.528794    7.152510    L2
Au    13.140000    2.528794    7.152510    L2
Au    8.760000    10.115176    7.152510    L2
Au    17.520000    10.115176    7.152510    L2
Au    7.300000    2.528794    7.152510    L2
Au    16.059999    2.528794    7.152510    L2
Au    11.680000    10.115176    7.152510    L2
Au    20.440001    10.115176    7.152510    L2
Au    2.920000    5.057588    7.152510    L2
Au    11.680000    5.057588    7.152510    L2
Au    5.840000    5.057588    7.152510    L2
Au    14.600000    5.057588    7.152510    L2
Au    8.760000    5.057588    7.152510    L2
Au    17.520000    5.057588    7.152510    L2
Au    1.460000    0.842931    9.536680    L2
Au    10.220000    0.842931    9.536680    L2
Au    5.840000    8.429314    9.536680    L2
Au    14.600000    8.429314    9.536680    L2
Au    4.380000    0.842931    9.536680    L2
Au    13.140000    0.842931    9.536680    L2
Au    8.760000    8.429314    9.536680    L2
Au    17.520000    8.429314    9.536680    L2
Au    7.300000    0.842931    9.536680    L2
Au    16.059999    0.842931    9.536680    L2
Au    11.680000    8.429314    9.536680    L2
Au    20.440001    8.429314    9.536680    L2
Au    2.920000    3.371726    9.536680    L2
Au    11.680000    3.371726    9.536680    L2
Au    7.300000    10.958108    9.536680    L2
Au    16.059999    10.958108    9.536680    L2
Au    5.840000    3.371726    9.536680    L2
Au    14.600000    3.371726    9.536680    L2
Au    10.220000    10.958108    9.536680    L2
Au    18.980000    10.958108    9.536680    L2
Au    8.760000    3.371726    9.536680    L2
Au    17.520000    3.371726    9.536680    L2
Au    13.140000    10.958108    9.536680    L2
Au    21.900000    10.958108    9.536680    L2
Au    4.380000    5.900520    9.536680    L2
Au    13.140000    5.900520    9.536680    L2
Au    7.300000    5.900520    9.536680    L2
Au    16.059999    5.900520    9.536680    L2
Au    10.220000    5.900520    9.536680    L2
Au    18.980000    5.900520    9.536680    L2
Au    0.000000    1.685863    11.920850    L2
Au    8.760000    1.685863    11.920850    L2
Au    4.380000    9.272245    11.920850    L2
Au    13.140000    9.272245    11.920850    L2
Au    2.920000    1.685863    11.920850    L2
Au    11.680000    1.685863    11.920850    L2
Au    7.300000    9.272245    11.920850    L2
Au    16.059999    9.272245    11.920850    L2
Au    5.840000    1.685863    11.920850    L2
Au    14.600000    1.685863    11.920850    L2
Au    10.220000    9.272245    11.920850    L2
Au    18.980000    9.272245    11.920850    L2
Au    1.460000    4.214657    11.920850    L2
Au    10.220000    4.214657    11.920850    L2
Au    5.840000    11.801040    11.920850    L2
Au    14.600000    11.801040    11.920850    L2
Au    4.380000    4.214657    11.920850    L2
Au    13.140000    4.214657    11.920850    L2
Au    8.760000    11.801040    11.920850    L2
Au    17.520000    11.801040    11.920850    L2
Au    7.300000    4.214657    11.920850    L2
Au    16.059999    4.214657    11.920850    L2
Au    11.680000    11.801040    11.920850    L2
Au    20.440001    11.801040    11.920850    L2
Au    2.920000    6.743451    11.920850    L2
Au    11.680000    6.743451    11.920850    L2
Au    5.840000    6.743451    11.920850    L2
Au    14.600000    6.743451    11.920850    L2
Au    8.760000    6.743451    11.920850    L2
Au    17.520000    6.743451    11.920850    L2
Au    0.000000    0.000000    14.305019    L1
Au    8.760000    0.000000    14.305019    L1
Au    4.380000    7.586382    14.305019    L1
Au    13.140000    7.586382    14.305019    L1
Au    2.920000    0.000000    14.305019    L1
Au    11.680000    0.000000    14.305019    L1
Au    7.300000    7.586382    14.305019    L1
Au    16.059999    7.586382    14.305019    L1
Au    5.840000    0.000000    14.305019    L1
Au    14.600000    0.000000    14.305019    L1
Au    10.220000    7.586382    14.305019    L1
Au    18.980000    7.586382    14.305019    L1
Au    1.460000    2.528794    14.305019    L1
Au    10.220000    2.528794    14.305019    L1
Au    5.840000    10.115176    14.305019    L1
Au    14.600000    10.115176    14.305019    L1
Au    4.380000    2.528794    14.305019    L1
Au    13.140000    2.528794    14.305019    L1
Au    8.760000    10.115176    14.305019    L1
Au    17.520000    10.115176    14.305019    L1
Au    7.300000    2.528794    14.305019    L1
Au    16.059999    2.528794    14.305019    L1
Au    11.680000    10.115176    14.305019    L1
Au    20.440001    10.115176    14.305019    L1
Au    2.920000    5.057588    14.305019    L1
Au    11.680000    5.057588    14.305019    L1
Au    5.840000    5.057588    14.305019    L1
Au    14.600000    5.057588    14.305019    L1
Au    8.760000    5.057588    14.305019    L1
Au    17.520000    5.057588    14.305019    L1
Au    1.460000    0.842931    16.689190    L1
Au    10.220000    0.842931    16.689190    L1
Au    5.840000    8.429314    16.689190    L1
Au    14.600000    8.429314    16.689190    L1
Au    4.380000    0.842931    16.689190    L1
Au    13.140000    0.842931    16.689190    L1
Au    8.760000    8.429314    16.689190    L1
Au    17.520000    8.429314    16.689190    L1
Au    7.300000    0.842931    16.689190    L1
Au    16.059999    0.842931    16.689190    L1
Au    11.680000    8.429314    16.689190    L1
Au    20.440001    8.429314    16.689190    L1
Au    2.920000    3.371726    16.689190    L1
Au    11.680000    3.371726    16.689190    L1
Au    7.300000    10.958108    16.689190    L1
Au    16.059999    10.958108    16.689190    L1
Au    5.840000    3.371726    16.689190    L1
Au    14.600000    3.371726    16.689190    L1
Au    10.220000    10.958108    16.689190    L1
Au    18.980000    10.958108    16.689190    L1
Au    8.760000    3.371726    16.689190    L1
Au    17.520000    3.371726    16.689190    L1
Au    13.140000    10.958108    16.689190    L1
Au    21.900000    10.958108    16.689190    L1
Au    4.380000    5.900520    16.689190    L1
Au    13.140000    5.900520    16.689190    L1
Au    7.300000    5.900520    16.689190    L1
Au    16.059999    5.900520    16.689190    L1
Au    10.220000    5.900520    16.689190    L1
Au    18.980000    5.900520    16.689190    L1
Au    0.000000    1.685863    19.073360    L1
Au    8.760000    1.685863    19.073360    L1
Au    4.380000    9.272245    19.073360    L1
Au    13.140000    9.272245    19.073360    L1
Au    2.920000    1.685863    19.073360    L1
Au    11.680000    1.685863    19.073360    L1
Au    7.300000    9.272245    19.073360    L1
Au    16.059999    9.272245    19.073360    L1
Au    5.840000    1.685863    19.073360    L1
Au    14.600000    1.685863    19.073360    L1
Au    10.220000    9.272245    19.073360    L1
Au    18.980000    9.272245    19.073360    L1
Au    1.460000    4.214657    19.073360    L1
Au    10.220000    4.214657    19.073360    L1
Au    5.840000    11.801040    19.073360    L1
Au    14.600000    11.801040    19.073360    L1
Au    4.380000    4.214657    19.073360    L1
Au    13.140000    4.214657    19.073360    L1
Au    8.760000    11.801040    19.073360    L1
Au    17.520000    11.801040    19.073360    L1
Au    7.300000    4.214657    19.073360    L1
Au    16.059999    4.214657    19.073360    L1
Au    11.680000    11.801040    19.073360    L1
Au    20.440001    11.801040    19.073360    L1
Au    2.920000    6.743451    19.073360    L1
Au    11.680000    6.743451    19.073360    L1
Au    5.840000    6.743451    19.073360    L1
Au    14.600000    6.743451    19.073360    L1
Au    8.760000    6.743451    19.073360    L1
Au    17.520000    6.743451    19.073360    L1
Au    0.0000000000    0.0000000000    21.457530000000002    L0
Au    8.7600000000    0.0000000000    21.457530000000002    L0
Au    4.3800000000    7.5863820000    21.457530000000002    L0
Au    13.1400000000    7.5863820000    21.457530000000002    L0
Au    2.9200000000    0.0000000000    21.457530000000002    L0
Au    11.6800000000    0.0000000000    21.457530000000002    L0
Au    7.3000000000    7.5863820000    21.457530000000002    L0
Au    16.0599990000    7.5863820000    21.457530000000002    L0
Au    5.8400000000    0.0000000000    21.457530000000002    L0
Au    14.6000000000    0.0000000000    21.457530000000002    L0
Au    10.2200000000    7.5863820000    21.457530000000002    L0
Au    18.9800000000    7.5863820000    21.457530000000002    L0
Au    1.4600000000    2.5287940000    21.457530000000002    L0
Au    10.2200000000    2.5287940000    21.457530000000002    L0
Au    5.8400000000    10.1151760000    21.457530000000002    L0
Au    14.6000000000    10.1151760000    21.457530000000002    L0
Au    4.3800000000    2.5287940000    21.457530000000002    L0
Au    13.1400000000    2.5287940000    21.457530000000002    L0
Au    8.7600000000    10.1151760000    21.457530000000002    L0
Au    17.5200000000    10.1151760000    21.457530000000002    L0
Au    7.3000000000    2.5287940000    21.457530000000002    L0
Au    16.0599990000    2.5287940000    21.457530000000002    L0
Au    11.6800000000    10.1151760000    21.457530000000002    L0
Au    20.4400010000    10.1151760000    21.457530000000002    L0
Au    2.9200000000    5.0575880000    21.457530000000002    L0
Au    11.6800000000    5.0575880000    21.457530000000002    L0
Au    5.8400000000    5.0575880000    21.457530000000002    L0
Au    14.6000000000    5.0575880000    21.457530000000002    L0
Au    8.7600000000    5.0575880000    21.457530000000002    L0
Au    17.5200000000    5.0575880000    21.457530000000002    L0
Au    1.4600000000    0.8429310000    23.841700000000003    L0
Au    10.2200000000    0.8429310000    23.841700000000003    L0
Au    5.8400000000    8.4293140000    23.841700000000003    L0
Au    14.6000000000    8.4293140000    23.841700000000003    L0
Au    4.3800000000    0.8429310000    23.841700000000003    L0
Au    13.1400000000    0.8429310000    23.841700000000003    L0
Au    8.7600000000    8.4293140000    23.841700000000003    L0
Au    17.5200000000    8.4293140000    23.841700000000003    L0
Au    7.3000000000    0.8429310000    23.841700000000003    L0
Au    16.0599990000    0.8429310000    23.841700000000003    L0
Au    11.6800000000    8.4293140000    23.841700000000003    L0
Au    20.4400010000    8.4293140000    23.841700000000003    L0
Au    2.9200000000    3.3717260000    23.841700000000003    L0
Au    11.6800000000    3.3717260000    23.841700000000003    L0
Au    7.3000000000    10.9581080000    23.841700000000003    L0
Au    16.0599990000    10.9581080000    23.841700000000003    L0
Au    5.8400000000    3.3717260000    23.841700000000003    L0
Au    14.6000000000    3.3717260000    23.841700000000003    L0
Au    10.2200000000    10.9581080000    23.841700000000003    L0
Au    18.9800000000    10.9581080000    23.841700000000003    L0
Au    8.7600000000    3.3717260000    23.841700000000003    L0
Au    17.5200000000    3.3717260000    23.841700000000003    L0
Au    13.1400000000    10.9581080000    23.841700000000003    L0
Au    21.9000000000    10.9581080000    23.841700000000003    L0
Au    4.3800000000    5.9005200000    23.841700000000003    L0
Au    13.1400000000    5.9005200000    23.841700000000003    L0
Au    7.3000000000    5.9005200000    23.841700000000003    L0
Au    16.0599990000    5.9005200000    23.841700000000003    L0
Au    10.2200000000    5.9005200000    23.841700000000003    L0
Au    18.9800000000    5.9005200000    23.841700000000003    L0
Au    0.0000000000    1.6858630000    26.22587    L0
Au    8.7600000000    1.6858630000    26.22587    L0
Au    4.3800000000    9.2722450000    26.22587    L0
Au    13.1400000000    9.2722450000    26.22587    L0
Au    2.9200000000    1.6858630000    26.22587    L0
Au    11.6800000000    1.6858630000    26.22587    L0
Au    7.3000000000    9.2722450000    26.22587    L0
Au    16.0599990000    9.2722450000    26.22587    L0
Au    5.8400000000    1.6858630000    26.22587    L0
Au    14.6000000000    1.6858630000    26.22587    L0
Au    10.2200000000    9.2722450000    26.22587    L0
Au    18.9800000000    9.2722450000    26.22587    L0
Au    1.4600000000    4.2146570000    26.22587    L0
Au    10.2200000000    4.2146570000    26.22587    L0
Au    5.8400000000    11.8010400000    26.22587    L0
Au    14.6000000000    11.8010400000    26.22587    L0
Au    4.3800000000    4.2146570000    26.22587    L0
Au    13.1400000000    4.2146570000    26.22587    L0
Au    8.7600000000    11.8010400000    26.22587    L0
Au    17.5200000000    11.8010400000    26.22587    L0
Au    7.3000000000    4.2146570000    26.22587    L0
Au    16.0599990000    4.2146570000    26.22587    L0
Au    11.6800000000    11.8010400000    26.22587    L0
Au    20.4400010000    11.8010400000    26.22587    L0
Au    2.9200000000    6.7434510000    26.22587    L0
Au    11.6800000000    6.7434510000    26.22587    L0
Au    5.8400000000    6.7434510000    26.22587    L0
Au    14.6000000000    6.7434510000    26.22587    L0
Au    8.7600000000    6.7434510000    26.22587    L0
Au    17.5200000000    6.7434510000    26.22587    L0
H    11.4447707642    5.1437433696    32.6421464063    S
C    11.0660967620    5.8211971712    31.874122321    S
C    11.0674295439    7.2031867891    32.1073586357    S
C    10.5837706703    8.0517311973    31.097125261100004    S
H    10.5808887653    9.1307800915    31.258880629800004    S
C    10.0724587230    7.5352377137    29.908145035400004    S
H    9.6737264106    8.2040037845    29.144067664300003    S
C    10.0366649169    6.1445539118    29.7026417958    S
C    10.5682172496    5.2905984588    30.6851844078    S
H    10.5542907408    4.2118196339    30.5298183445    S
C    11.5692971633    7.7517971154    33.425038281700004    S
N    10.6218040669    8.7077836464    34.0338843294    S
H    12.5104106906    8.3027529988    33.2678766042    S
H    11.8033516247    6.9077689250    34.1002764495    S
C    11.0837186642    9.3835786428    35.2277980486    S
C    9.3040177163    8.1958625591    34.3483032449    S
C    8.2751304359    8.9180814583    42.0949547908    S
C    7.8704470677    7.6706511412    42.6973069899    S
C    9.0703798737    6.9853605427    43.215604239300006    S
C    10.2273021706    7.8149742518    42.8077166681    S
C    9.7247804503    9.0045482291    42.1558804333    S
C    10.4364615898    9.5771367527    41.0937787967    S
C    11.6751259383    8.9795062222    40.6382743205    S
C    12.1523008409    7.8195594000    41.2619780634    S
C    11.4058229988    7.2243939487    42.3562238151    S
C    11.4980542517    5.7755681028    42.21838120620001    S
C    10.4028548274    4.9668182716    42.5347843805    S
C    9.1664293878    5.5660529303    43.0026486395    S
C    8.0618821792    4.8245965547    42.4325935286    S
C    6.9082367331    5.4959926529    42.013407463200004    S
C    6.8113671871    6.9393562213    42.1459301412    S
C    6.1019357484    7.4480918695    40.9898454784    S
C    5.7595231557    6.3178550963    40.1410311258    S
C    6.2497833062    5.1079251163    40.778578843700004    S
C    6.7764381560    4.0729636565    40.000435614500006    S
C    7.9803442480    3.3785993546    40.4313820845    S
C    8.6109875531    3.7500875223    41.621648985700006    S
C    10.0583396241    3.8407297267    41.682842217300006    S
C    10.8223707274    3.5666875001    40.5448604913    S
C    11.9615637466    4.4070549152    40.218107737500006    S
C    12.3004811824    5.4876764317    41.0456336173    S
C    12.7021983058    6.7485139672    40.453508846300004    S
C    12.7486604185    6.8815800798    39.061124806    S
C    12.2485739991    8.0821624514    38.4154983947    S
C    11.7365390865    9.1142423283    39.1941206771    S
C    10.5117168501    9.7878397177    38.751616293    S
C    9.9021187441    9.4320066109    37.557643900100004    S
C    10.5672005902    8.5518742359    36.4952858328    S
C    11.6152945251    7.7076413052    37.1576378889    S
C    11.6746100216    6.3118448256    37.0519659777    S
C    12.3875021134    5.7697340264    38.2131990188    S
C    12.0082768951    4.5565181243    38.7795980578    S
C    10.8924764042    3.7979201675    38.2110678745    S
C    10.1679739252    3.1848048115    39.305302276700004    S
C    8.7709361358    3.0847891423    39.2497121202    S
C    8.0585297164    3.5904110694    38.0918041695    S
C    6.8260091996    4.1982105862    38.5543989888    S
C    6.3596693686    5.3687067641    37.9392058184    S
C    5.8194086592    6.4445569847    38.750993737900004    S
C    6.2318165601    7.7056540057    38.158614407200005    S
C    7.0239640064    7.4209624290    36.9844173188    S
C    7.0959983877    5.9622511332    36.8406139823    S
C    8.2857128185    5.3900451832    36.4029917716    S
C    8.7700612440    4.1776986824    37.0380949655    S
C    10.2079530324    4.2868558866    37.1035778672    S
C    10.5821456290    5.5701943591    36.4956002598    S
C    9.4278810480    6.2223081828    36.0471896851    S
C    9.3218851747    7.7078745448    35.8686729598    S
C    8.1125448055    8.2137713798    36.6552075223    S
C    8.4732123179    9.3054745400    37.5120512876    S
C    7.6867917033    9.6147928305    38.6463157634    S
C    6.5420475137    8.7995857725    38.973857595700004    S
C    6.4786394779    8.6671904750    40.417208065    S
C    7.5875993149    9.4173850474    40.9803870417    S
C    8.3258614427    10.0051999270    39.8803781947    S
C    9.7224579922    10.0709137835    39.9304378387    S
H    9.0053637289    7.3989565460    33.6580739893    S
H    8.5653492864    9.0091731855    34.275121825    S
S    9.1336528826    5.3888877745    28.3738312993    S
H    10.6263659978    10.3836419685    35.289951215    S
H    12.1738812302    9.5020992952    35.2309943586    S
Au    8.9159090984    6.6802380938    45.4359951646    R0
Au    0.0000000000    0.0000000000    47.9122294069    R0
Au    8.7600000000    0.0000000000    47.9122294069    R0
Au    4.3800000000    7.5863820000    47.9122294069    R0
Au    13.1400000000    7.5863820000    47.9122294069    R0
Au    2.9200000000    0.0000000000    47.9122294069    R0
Au    11.6800000000    0.0000000000    47.9122294069    R0
Au    7.3000000000    7.5863820000    47.9122294069    R0
Au    16.0599990000    7.5863820000    47.9122294069    R0
Au    5.8400000000    0.0000000000    47.9122294069    R0
Au    14.6000000000    0.0000000000    47.9122294069    R0
Au    10.2200000000    7.5863820000    47.9122294069    R0
Au    18.9800000000    7.5863820000    47.9122294069    R0
Au    1.4600000000    2.5287940000    47.9122294069    R0
Au    10.2200000000    2.5287940000    47.9122294069    R0
Au    5.8400000000    10.1151760000    47.9122294069    R0
Au    14.6000000000    10.1151760000    47.9122294069    R0
Au    4.3800000000    2.5287940000    47.9122294069    R0
Au    13.1400000000    2.5287940000    47.9122294069    R0
Au    8.7600000000    10.1151760000    47.9122294069    R0
Au    17.5200000000    10.1151760000    47.9122294069    R0
Au    7.3000000000    2.5287940000    47.9122294069    R0
Au    16.0599990000    2.5287940000    47.9122294069    R0
Au    11.6800000000    10.1151760000    47.9122294069    R0
Au    20.4400010000    10.1151760000    47.9122294069    R0
Au    2.9200000000    5.0575880000    47.9122294069    R0
Au    11.6800000000    5.0575880000    47.9122294069    R0
Au    5.8400000000    5.0575880000    47.9122294069    R0
Au    14.6000000000    5.0575880000    47.9122294069    R0
Au    8.7600000000    5.0575880000    47.9122294069    R0
Au    17.5200000000    5.0575880000    47.9122294069    R0
Au    1.4600000000    0.8429310000    50.2963994069    R0
Au    10.2200000000    0.8429310000    50.2963994069    R0
Au    5.8400000000    8.4293140000    50.2963994069    R0
Au    14.6000000000    8.4293140000    50.2963994069    R0
Au    4.3800000000    0.8429310000    50.2963994069    R0
Au    13.1400000000    0.8429310000    50.2963994069    R0
Au    8.7600000000    8.4293140000    50.2963994069    R0
Au    17.5200000000    8.4293140000    50.2963994069    R0
Au    7.3000000000    0.8429310000    50.2963994069    R0
Au    16.0599990000    0.8429310000    50.2963994069    R0
Au    11.6800000000    8.4293140000    50.2963994069    R0
Au    20.4400010000    8.4293140000    50.2963994069    R0
Au    2.9200000000    3.3717260000    50.2963994069    R0
Au    11.6800000000    3.3717260000    50.2963994069    R0
Au    7.3000000000    10.9581080000    50.2963994069    R0
Au    16.0599990000    10.9581080000    50.2963994069    R0
Au    5.8400000000    3.3717260000    50.2963994069    R0
Au    14.6000000000    3.3717260000    50.2963994069    R0
Au    10.2200000000    10.9581080000    50.2963994069    R0
Au    18.9800000000    10.9581080000    50.2963994069    R0
Au    8.7600000000    3.3717260000    50.2963994069    R0
Au    17.5200000000    3.3717260000    50.2963994069    R0
Au    13.1400000000    10.9581080000    50.2963994069    R0
Au    21.9000000000    10.9581080000    50.2963994069    R0
Au    4.3800000000    5.9005200000    50.2963994069    R0
Au    13.1400000000    5.9005200000    50.2963994069    R0
Au    7.3000000000    5.9005200000    50.2963994069    R0
Au    16.0599990000    5.9005200000    50.2963994069    R0
Au    10.2200000000    5.9005200000    50.2963994069    R0
Au    18.9800000000    5.9005200000    50.2963994069    R0
Au    0.0000000000    1.6858630000    52.680569406900005    R0
Au    8.7600000000    1.6858630000    52.680569406900005    R0
Au    4.3800000000    9.2722450000    52.680569406900005    R0
Au    13.1400000000    9.2722450000    52.680569406900005    R0
Au    2.9200000000    1.6858630000    52.680569406900005    R0
Au    11.6800000000    1.6858630000    52.680569406900005    R0
Au    7.3000000000    9.2722450000    52.680569406900005    R0
Au    16.0599990000    9.2722450000    52.680569406900005    R0
Au    5.8400000000    1.6858630000    52.680569406900005    R0
Au    14.6000000000    1.6858630000    52.680569406900005    R0
Au    10.2200000000    9.2722450000    52.680569406900005    R0
Au    18.9800000000    9.2722450000    52.680569406900005    R0
Au    1.4600000000    4.2146570000    52.680569406900005    R0
Au    10.2200000000    4.2146570000    52.680569406900005    R0
Au    5.8400000000    11.8010400000    52.680569406900005    R0
Au    14.6000000000    11.8010400000    52.680569406900005    R0
Au    4.3800000000    4.2146570000    52.680569406900005    R0
Au    13.1400000000    4.2146570000    52.680569406900005    R0
Au    8.7600000000    11.8010400000    52.680569406900005    R0
Au    17.5200000000    11.8010400000    52.680569406900005    R0
Au    7.3000000000    4.2146570000    52.680569406900005    R0
Au    16.0599990000    4.2146570000    52.680569406900005    R0
Au    11.6800000000    11.8010400000    52.680569406900005    R0
Au    20.4400010000    11.8010400000    52.680569406900005    R0
Au    2.9200000000    6.7434510000    52.680569406900005    R0
Au    11.6800000000    6.7434510000    52.680569406900005    R0
Au    5.8400000000    6.7434510000    52.680569406900005    R0
Au    14.6000000000    6.7434510000    52.680569406900005    R0
Au    8.7600000000    6.7434510000    52.680569406900005    R0
Au    17.5200000000    6.7434510000    52.680569406900005    R0
Au    0.000000    0.000000    55.064739406899996    R1
Au    8.760000    0.000000    55.064739406899996    R1
Au    4.380000    7.586382    55.064739406899996    R1
Au    13.140000    7.586382    55.064739406899996    R1
Au    2.920000    0.000000    55.064739406899996    R1
Au    11.680000    0.000000    55.064739406899996    R1
Au    7.300000    7.586382    55.064739406899996    R1
Au    16.059999    7.586382    55.064739406899996    R1
Au    5.840000    0.000000    55.064739406899996    R1
Au    14.600000    0.000000    55.064739406899996    R1
Au    10.220000    7.586382    55.064739406899996    R1
Au    18.980000    7.586382    55.064739406899996    R1
Au    1.460000    2.528794    55.064739406899996    R1
Au    10.220000    2.528794    55.064739406899996    R1
Au    5.840000    10.115176    55.064739406899996    R1
Au    14.600000    10.115176    55.064739406899996    R1
Au    4.380000    2.528794    55.064739406899996    R1
Au    13.140000    2.528794    55.064739406899996    R1
Au    8.760000    10.115176    55.064739406899996    R1
Au    17.520000    10.115176    55.064739406899996    R1
Au    7.300000    2.528794    55.064739406899996    R1
Au    16.059999    2.528794    55.064739406899996    R1
Au    11.680000    10.115176    55.064739406899996    R1
Au    20.440001    10.115176    55.064739406899996    R1
Au    2.920000    5.057588    55.064739406899996    R1
Au    11.680000    5.057588    55.064739406899996    R1
Au    5.840000    5.057588    55.064739406899996    R1
Au    14.600000    5.057588    55.064739406899996    R1
Au    8.760000    5.057588    55.064739406899996    R1
Au    17.520000    5.057588    55.064739406899996    R1
Au    1.460000    0.842931    57.4489094069    R1
Au    10.220000    0.842931    57.4489094069    R1
Au    5.840000    8.429314    57.4489094069    R1