     902
 i =       72, E =     -6434.2718402668
Au    0.000000    0.000000    0.000000    L3
Au    8.760000    0.000000    0.000000    L3
Au    4.380000    7.586382    0.000000    L3
Au    13.140000    7.586382    0.000000    L3
Au    2.920000    0.000000    0.000000    L3
Au    11.680000    0.000000    0.000000    L3
Au    7.300000    7.586382    0.000000    L3
Au    16.059999    7.586382    0.000000    L3
Au    5.840000    0.000000    0.000000    L3
Au    14.600000    0.000000    0.000000    L3
Au    10.220000    7.586382    0.000000    L3
Au    18.980000    7.586382    0.000000    L3
Au    1.460000    2.528794    0.000000    L3
Au    10.220000    2.528794    0.000000    L3
Au    5.840000    10.115176    0.000000    L3
Au    14.600000    10.115176    0.000000    L3
Au    4.380000    2.528794    0.000000    L3
Au    13.140000    2.528794    0.000000    L3
Au    8.760000    10.115176    0.000000    L3
Au    17.520000    10.115176    0.000000    L3
Au    7.300000    2.528794    0.000000    L3
Au    16.059999    2.528794    0.000000    L3
Au    11.680000    10.115176    0.000000    L3
Au    20.440001    10.115176    0.000000    L3
Au    2.920000    5.057588    0.000000    L3
Au    11.680000    5.057588    0.000000    L3
Au    5.840000    5.057588    0.000000    L3
Au    14.600000    5.057588    0.000000    L3
Au    8.760000    5.057588    0.000000    L3
Au    17.520000    5.057588    0.000000    L3
Au    1.460000    0.842931    2.384170    L3
Au    10.220000    0.842931    2.384170    L3
Au    5.840000    8.429314    2.384170    L3
Au    14.600000    8.429314    2.384170    L3
Au    4.380000    0.842931    2.384170    L3
Au    13.140000    0.842931    2.384170    L3
Au    8.760000    8.429314    2.384170    L3
Au    17.520000    8.429314    2.384170    L3
Au    7.300000    0.842931    2.384170    L3
Au    16.059999    0.842931    2.384170    L3
Au    11.680000    8.429314    2.384170    L3
Au    20.440001    8.429314    2.384170    L3
Au    2.920000    3.371726    2.384170    L3
Au    11.680000    3.371726    2.384170    L3
Au    7.300000    10.958108    2.384170    L3
Au    16.059999    10.958108    2.384170    L3
Au    5.840000    3.371726    2.384170    L3
Au    14.600000    3.371726    2.384170    L3
Au    10.220000    10.958108    2.384170    L3
Au    18.980000    10.958108    2.384170    L3
Au    8.760000    3.371726    2.384170    L3
Au    17.520000    3.371726    2.384170    L3
Au    13.140000    10.958108    2.384170    L3
Au    21.900000    10.958108    2.384170    L3
Au    4.380000    5.900520    2.384170    L3
Au    13.140000    5.900520    2.384170    L3
Au    7.300000    5.900520    2.384170    L3
Au    16.059999    5.900520    2.384170    L3
Au    10.220000    5.900520    2.384170    L3
Au    18.980000    5.900520    2.384170    L3
Au    0.000000    1.685863    4.768340    L3
Au    8.760000    1.685863    4.768340    L3
Au    4.380000    9.272245    4.768340    L3
Au    13.140000    9.272245    4.768340    L3
Au    2.920000    1.685863    4.768340    L3
Au    11.680000    1.685863    4.768340    L3
Au    7.300000    9.272245    4.768340    L3
Au    16.059999    9.272245    4.768340    L3
Au    5.840000    1.685863    4.768340    L3
Au    14.600000    1.685863    4.768340    L3
Au    10.220000    9.272245    4.768340    L3
Au    18.980000    9.272245    4.768340    L3
Au    1.460000    4.214657    4.768340    L3
Au    10.220000    4.214657    4.768340    L3
Au    5.840000    11.801040    4.768340    L3
Au    14.600000    11.801040    4.768340    L3
Au    4.380000    4.214657    4.768340    L3
Au    13.140000    4.214657    4.768340    L3
Au    8.760000    11.801040    4.768340    L3
Au    17.520000    11.801040    4.768340    L3
Au    7.300000    4.214657    4.768340    L3
Au    16.059999    4.214657    4.768340    L3
Au    11.680000    11.801040    4.768340    L3
Au    20.440001    11.801040    4.768340    L3
Au    2.920000    6.743451    4.768340    L3
Au    11.680000    6.743451    4.768340    L3
Au    5.840000    6.743451    4.768340    L3
Au    14.600000    6.743451    4.768340    L3
Au    8.760000    6.743451    4.768340    L3
Au    17.520000    6.743451    4.768340    L3
Au    0.000000    0.000000    7.152510    L2
Au    8.760000    0.000000    7.152510    L2
Au    4.380000    7.586382    7.152510    L2
Au    13.140000    7.586382    7.152510    L2
Au    2.920000    0.000000    7.152510    L2
Au    11.680000    0.000000    7.152510    L2
Au    7.300000    7.586382    7.152510    L2
Au    16.059999    7.586382    7.152510    L2
Au    5.840000    0.000000    7.152510    L2
Au    14.600000    0.000000    7.152510    L2
Au    10.220000    7.586382    7.152510    L2
Au    18.980000    7.586382    7.152510    L2
Au    1.460000    2.528794    7.152510    L2
Au    10.220000    2.528794    7.152510    L2
Au    5.840000    10.115176    7.152510    L2
Au    14.600000    10.115176    7.152510    L2
Au    4.380000    2.528794    7.152510    L2
Au    13.140000    2.528794    7.152510    L2
Au    8.760000    10.115176    7.152510    L2
Au    17.520000    10.115176    7.152510    L2
Au    7.300000    2.528794    7.152510    L2
Au    16.059999    2.528794    7.152510    L2
Au    11.680000    10.115176    7.152510    L2
Au    20.440001    10.115176    7.152510    L2
Au    2.920000    5.057588    7.152510    L2
Au    11.680000    5.057588    7.152510    L2
Au    5.840000    5.057588    7.152510    L2
Au    14.600000    5.057588    7.152510    L2
Au    8.760000    5.057588    7.152510    L2
Au    17.520000    5.057588    7.152510    L2
Au    1.460000    0.842931    9.536680    L2
Au    10.220000    0.842931    9.536680    L2
Au    5.840000    8.429314    9.536680    L2
Au    14.600000    8.429314    9.536680    L2
Au    4.380000    0.842931    9.536680    L2
Au    13.140000    0.842931    9.536680    L2
Au    8.760000    8.429314    9.536680    L2
Au    17.520000    8.429314    9.536680    L2
Au    7.300000    0.842931    9.536680    L2
Au    16.059999    0.842931    9.536680    L2
Au    11.680000    8.429314    9.536680    L2
Au    20.440001    8.429314    9.536680    L2
Au    2.920000    3.371726    9.536680    L2
Au    11.680000    3.371726    9.536680    L2
Au    7.300000    10.958108    9.536680    L2
Au    16.059999    10.958108    9.536680    L2
Au    5.840000    3.371726    9.536680    L2
Au    14.600000    3.371726    9.536680    L2
Au    10.220000    10.958108    9.536680    L2
Au    18.980000    10.958108    9.536680    L2
Au    8.760000    3.371726    9.536680    L2
Au    17.520000    3.371726    9.536680    L2
Au    13.140000    10.958108    9.536680    L2
Au    21.900000    10.958108    9.536680    L2
Au    4.380000    5.900520    9.536680    L2
Au    13.140000    5.900520    9.536680    L2
Au    7.300000    5.900520    9.536680    L2
Au    16.059999    5.900520    9.536680    L2
Au    10.220000    5.900520    9.536680    L2
Au    18.980000    5.900520    9.536680    L2
Au    0.000000    1.685863    11.920850    L2
Au    8.760000    1.685863    11.920850    L2
Au    4.380000    9.272245    11.920850    L2
Au    13.140000    9.272245    11.920850    L2
Au    2.920000    1.685863    11.920850    L2
Au    11.680000    1.685863    11.920850    L2
Au    7.300000    9.272245    11.920850    L2
Au    16.059999    9.272245    11.920850    L2
Au    5.840000    1.685863    11.920850    L2
Au    14.600000    1.685863    11.920850    L2
Au    10.220000    9.272245    11.920850    L2
Au    18.980000    9.272245    11.920850    L2
Au    1.460000    4.214657    11.920850    L2
Au    10.220000    4.214657    11.920850    L2
Au    5.840000    11.801040    11.920850    L2
Au    14.600000    11.801040    11.920850    L2
Au    4.380000    4.214657    11.920850    L2
Au    13.140000    4.214657    11.920850    L2
Au    8.760000    11.801040    11.920850    L2
Au    17.520000    11.801040    11.920850    L2
Au    7.300000    4.214657    11.920850    L2
Au    16.059999    4.214657    11.920850    L2
Au    11.680000    11.801040    11.920850    L2
Au    20.440001    11.801040    11.920850    L2
Au    2.920000    6.743451    11.920850    L2
Au    11.680000    6.743451    11.920850    L2
Au    5.840000    6.743451    11.920850    L2
Au    14.600000    6.743451    11.920850    L2
Au    8.760000    6.743451    11.920850    L2
Au    17.520000    6.743451    11.920850    L2
Au    0.000000    0.000000    14.305019    L1
Au    8.760000    0.000000    14.305019    L1
Au    4.380000    7.586382    14.305019    L1
Au    13.140000    7.586382    14.305019    L1
Au    2.920000    0.000000    14.305019    L1
Au    11.680000    0.000000    14.305019    L1
Au    7.300000    7.586382    14.305019    L1
Au    16.059999    7.586382    14.305019    L1
Au    5.840000    0.000000    14.305019    L1
Au    14.600000    0.000000    14.305019    L1
Au    10.220000    7.586382    14.305019    L1
Au    18.980000    7.586382    14.305019    L1
Au    1.460000    2.528794    14.305019    L1
Au    10.220000    2.528794    14.305019    L1
Au    5.840000    10.115176    14.305019    L1
Au    14.600000    10.115176    14.305019    L1
Au    4.380000    2.528794    14.305019    L1
Au    13.140000    2.528794    14.305019    L1
Au    8.760000    10.115176    14.305019    L1
Au    17.520000    10.115176    14.305019    L1
Au    7.300000    2.528794    14.305019    L1
Au    16.059999    2.528794    14.305019    L1
Au    11.680000    10.115176    14.305019    L1
Au    20.440001    10.115176    14.305019    L1
Au    2.920000    5.057588    14.305019    L1
Au    11.680000    5.057588    14.305019    L1
Au    5.840000    5.057588    14.305019    L1
Au    14.600000    5.057588    14.305019    L1
Au    8.760000    5.057588    14.305019    L1
Au    17.520000    5.057588    14.305019    L1
Au    1.460000    0.842931    16.689190    L1
Au    10.220000    0.842931    16.689190    L1
Au    5.840000    8.429314    16.689190    L1
Au    14.600000    8.429314    16.689190    L1
Au    4.380000    0.842931    16.689190    L1
Au    13.140000    0.842931    16.689190    L1
Au    8.760000    8.429314    16.689190    L1
Au    17.520000    8.429314    16.689190    L1
Au    7.300000    0.842931    16.689190    L1
Au    16.059999    0.842931    16.689190    L1
Au    11.680000    8.429314    16.689190    L1
Au    20.440001    8.429314    16.689190    L1
Au    2.920000    3.371726    16.689190    L1
Au    11.680000    3.371726    16.689190    L1
Au    7.300000    10.958108    16.689190    L1
Au    16.059999    10.958108    16.689190    L1
Au    5.840000    3.371726    16.689190    L1
Au    14.600000    3.371726    16.689190    L1
Au    10.220000    10.958108    16.689190    L1
Au    18.980000    10.958108    16.689190    L1
Au    8.760000    3.371726    16.689190    L1
Au    17.520000    3.371726    16.689190    L1
Au    13.140000    10.958108    16.689190    L1
Au    21.900000    10.958108    16.689190    L1
Au    4.380000    5.900520    16.689190    L1
Au    13.140000    5.900520    16.689190    L1
Au    7.300000    5.900520    16.689190    L1
Au    16.059999    5.900520    16.689190    L1
Au    10.220000    5.900520    16.689190    L1
Au    18.980000    5.900520    16.689190    L1
Au    0.000000    1.685863    19.073360    L1
Au    8.760000    1.685863    19.073360    L1
Au    4.380000    9.272245    19.073360    L1
Au    13.140000    9.272245    19.073360    L1
Au    2.920000    1.685863    19.073360    L1
Au    11.680000    1.685863    19.073360    L1
Au    7.300000    9.272245    19.073360    L1
Au    16.059999    9.272245    19.073360    L1
Au    5.840000    1.685863    19.073360    L1
Au    14.600000    1.685863    19.073360    L1
Au    10.220000    9.272245    19.073360    L1
Au    18.980000    9.272245    19.073360    L1
Au    1.460000    4.214657    19.073360    L1
Au    10.220000    4.214657    19.073360    L1
Au    5.840000    11.801040    19.073360    L1
Au    14.600000    11.801040    19.073360    L1
Au    4.380000    4.214657    19.073360    L1
Au    13.140000    4.214657    19.073360    L1
Au    8.760000    11.801040    19.073360    L1
Au    17.520000    11.801040    19.073360    L1
Au    7.300000    4.214657    19.073360    L1
Au    16.059999    4.214657    19.073360    L1
Au    11.680000    11.801040    19.073360    L1
Au    20.440001    11.801040    19.073360    L1
Au    2.920000    6.743451    19.073360    L1
Au    11.680000    6.743451    19.073360    L1
Au    5.840000    6.743451    19.073360    L1
Au    14.600000    6.743451    19.073360    L1
Au    8.760000    6.743451    19.073360    L1
Au    17.520000    6.743451    19.073360    L1
Au    0.0000000000    0.0000000000    21.457530000000002    L0
Au    8.7600000000    0.0000000000    21.457530000000002    L0
Au    4.3800000000    7.5863820000    21.457530000000002    L0
Au    13.1400000000    7.5863820000    21.457530000000002    L0
Au    2.9200000000    0.0000000000    21.457530000000002    L0
Au    11.6800000000    0.0000000000    21.457530000000002    L0
Au    7.3000000000    7.5863820000    21.457530000000002    L0
Au    16.0599990000    7.5863820000    21.457530000000002    L0
Au    5.8400000000    0.0000000000    21.457530000000002    L0
Au    14.6000000000    0.0000000000    21.457530000000002    L0
Au    10.2200000000    7.5863820000    21.457530000000002    L0
Au    18.9800000000    7.5863820000    21.457530000000002    L0
Au    1.4600000000    2.5287940000    21.457530000000002    L0
Au    10.2200000000    2.5287940000    21.457530000000002    L0
Au    5.8400000000    10.1151760000    21.457530000000002    L0
Au    14.6000000000    10.1151760000    21.457530000000002    L0
Au    4.3800000000    2.5287940000    21.457530000000002    L0
Au    13.1400000000    2.5287940000    21.457530000000002    L0
Au    8.7600000000    10.1151760000    21.457530000000002    L0
Au    17.5200000000    10.1151760000    21.457530000000002    L0
Au    7.3000000000    2.5287940000    21.457530000000002    L0
Au    16.0599990000    2.5287940000    21.457530000000002    L0
Au    11.6800000000    10.1151760000    21.457530000000002    L0
Au    20.4400010000    10.1151760000    21.457530000000002    L0
Au    2.9200000000    5.0575880000    21.457530000000002    L0
Au    11.6800000000    5.0575880000    21.457530000000002    L0
Au    5.8400000000    5.0575880000    21.457530000000002    L0
Au    14.6000000000    5.0575880000    21.457530000000002    L0
Au    8.7600000000    5.0575880000    21.457530000000002    L0
Au    17.5200000000    5.0575880000    21.457530000000002    L0
Au    1.4600000000    0.8429310000    23.841700000000003    L0
Au    10.2200000000    0.8429310000    23.841700000000003    L0
Au    5.8400000000    8.4293140000    23.841700000000003    L0
Au    14.6000000000    8.4293140000    23.841700000000003    L0
Au    4.3800000000    0.8429310000    23.841700000000003    L0
Au    13.1400000000    0.8429310000    23.841700000000003    L0
Au    8.7600000000    8.4293140000    23.841700000000003    L0
Au    17.5200000000    8.4293140000    23.841700000000003    L0
Au    7.3000000000    0.8429310000    23.841700000000003    L0
Au    16.0599990000    0.8429310000    23.841700000000003    L0
Au    11.6800000000    8.4293140000    23.841700000000003    L0
Au    20.4400010000    8.4293140000    23.841700000000003    L0
Au    2.9200000000    3.3717260000    23.841700000000003    L0
Au    11.6800000000    3.3717260000    23.841700000000003    L0
Au    7.3000000000    10.9581080000    23.841700000000003    L0
Au    16.0599990000    10.9581080000    23.841700000000003    L0
Au    5.8400000000    3.3717260000    23.841700000000003    L0
Au    14.6000000000    3.3717260000    23.841700000000003    L0
Au    10.2200000000    10.9581080000    23.841700000000003    L0
Au    18.9800000000    10.9581080000    23.841700000000003    L0
Au    8.7600000000    3.3717260000    23.841700000000003    L0
Au    17.5200000000    3.3717260000    23.841700000000003    L0
Au    13.1400000000    10.9581080000    23.841700000000003    L0
Au    21.9000000000    10.9581080000    23.841700000000003    L0
Au    4.3800000000    5.9005200000    23.841700000000003    L0
Au    13.1400000000    5.9005200000    23.841700000000003    L0
Au    7.3000000000    5.9005200000    23.841700000000003    L0
Au    16.0599990000    5.9005200000    23.841700000000003    L0
Au    10.2200000000    5.9005200000    23.841700000000003    L0
Au    18.9800000000    5.9005200000    23.841700000000003    L0
Au    0.0000000000    1.6858630000    26.22587    L0
Au    8.7600000000    1.6858630000    26.22587    L0
Au    4.3800000000    9.2722450000    26.22587    L0
Au    13.1400000000    9.2722450000    26.22587    L0
Au    2.9200000000    1.6858630000    26.22587    L0
Au    11.6800000000    1.6858630000    26.22587    L0
Au    7.3000000000    9.2722450000    26.22587    L0
Au    16.0599990000    9.2722450000    26.22587    L0
Au    5.8400000000    1.6858630000    26.22587    L0
Au    14.6000000000    1.6858630000    26.22587    L0
Au    10.2200000000    9.2722450000    26.22587    L0
Au    18.9800000000    9.2722450000    26.22587    L0
Au    1.4600000000    4.2146570000    26.22587    L0
Au    10.2200000000    4.2146570000    26.22587    L0
Au    5.8400000000    11.8010400000    26.22587    L0
Au    14.6000000000    11.8010400000    26.22587    L0
Au    4.3800000000    4.2146570000    26.22587    L0
Au    13.1400000000    4.2146570000    26.22587    L0
Au    8.7600000000    11.8010400000    26.22587    L0
Au    17.5200000000    11.8010400000    26.22587    L0
Au    7.3000000000    4.2146570000    26.22587    L0
Au    16.0599990000    4.2146570000    26.22587    L0
Au    11.6800000000    11.8010400000    26.22587    L0
Au    20.4400010000    11.8010400000    26.22587    L0
Au    2.9200000000    6.7434510000    26.22587    L0
Au    11.6800000000    6.7434510000    26.22587    L0
Au    5.8400000000    6.7434510000    26.22587    L0
Au    14.6000000000    6.7434510000    26.22587    L0
Au    8.7600000000    6.7434510000    26.22587    L0
Au    17.5200000000    6.7434510000    26.22587    L0
H    11.3335856375    4.9532984944    32.6657870462    S
C    10.9881886050    5.6564623986    31.905274986100004    S
C    10.9937607174    7.0310940980    32.1779581014    S
C    10.5555056350    7.9140853469    31.1766284973    S
H    10.5589791187    8.9873034214    31.3724865302    S
C    10.0778536333    7.4390118982    29.957439114800003    S
H    9.7125690464    8.1333609795    29.199618990700003    S
C    10.0282933168    6.0547279607    29.7158597071    S
C    10.5207711669    5.1655607376    30.6872048818    S
H    10.4973529435    4.0919111212    30.5006670612    S
C    11.4517971238    7.5432798554    33.526431898300004    S
N    10.4931235870    8.5004347447    34.1107002375    S
H    12.4050688109    8.0839641209    33.412911484300004    S
H    11.6509703456    6.6825407249    34.1918443609    S
C    10.9420860475    9.2133827891    35.2889196621    S
C    9.1805275713    7.9755699945    34.4359006301    S
C    8.1420629289    8.9256854985    42.1643924448    S
C    7.7563279151    7.6798394753    42.7988489146    S
C    8.9611913153    7.0117550992    43.2531780138    S
C    10.1004076611    7.8459694602    42.8978363162    S
C    9.5917006564    9.0265041968    42.220157973    S
C    10.2968683704    9.5689158283    41.141356520200006    S
C    11.5412180458    8.9661095797    40.701258060200004    S
C    12.0338887214    7.8306076225    41.357806972000006    S
C    11.2934936621    7.2583636520    42.4704163516    S
C    11.3986195861    5.8100394130    42.378303752600004    S
C    10.3052990230    5.0067882455    42.7153127501    S
C    9.0629452540    5.6168944252    43.161570137400005    S
C    7.9627834391    4.8416260417    42.622201315400005    S
C    6.7972595028    5.4848260141    42.1895531971    S
C    6.6913568076    6.9279782663    42.276289652200006    S
C    5.9771537458    7.3995486845    41.1053863452    S
C    5.6433578004    6.2429097720    40.288925505600005    S
C    6.1444131299    5.0562931722    40.961784528600006    S
C    6.6795958869    4.0048232761    40.2138816446    S
C    7.8912919896    3.3364499025    40.663328988800004    S
C    8.5203469275    3.7486087120    41.841819094    S
C    9.9683771401    3.8536083969    41.8976485684    S
C    10.7340891728    3.5514185071    40.7672381785    S
C    11.8673192156    4.3894185672    40.4140183394    S
C    12.2000389528    5.4949937308    41.2087236925    S
C    12.5913680131    6.7414978418    40.5796240183    S
C    12.6335663977    6.8345064940    39.1827875984    S
C    12.1208079895    8.0112290882    38.5043624321    S
C    11.5988302955    9.0596527688    39.2539774942    S
C    10.3678677248    9.7110338153    38.793784668300006    S
C    9.7600411498    9.3158230602    37.6113786943    S
C    10.4322135462    8.4122383383    36.5742437696    S
C    11.4891407240    7.5956270546    37.257790312500006    S
C    11.5598240745    6.1997977907    37.192163063900004    S
C    12.2806300984    5.6963492709    38.368520653800005    S
C    11.9096193893    4.4988742491    38.9705787087    S
C    10.7981965863    3.7151824920    38.4271743341    S
C    10.0803095569    3.1292498904    39.540333176800004    S
C    8.6841162722    3.0157994820    39.48957175540001    S
C    7.9665996307    3.4804864687    38.3179309186    S
C    6.7287283090    4.0898881031    38.7632490533    S
C    6.2510973771    5.2366154057    38.1144103346    S
C    5.7024860908    6.3302796351    38.8948621144    S
C    6.1055055530    7.5766331322    38.2659274769    S
C    6.8992327734    7.2658135974    37.0984257993    S
C    6.9824103306    5.8048379272    36.9971458205    S
C    8.1764630287    5.2300804716    36.5758148452    S
C    8.6719052950    4.0411353484    37.2452841943    S
C    10.1087503484    4.1645451636    37.3062096126    S
C    10.4720924853    5.4325504916    36.660299471500004    S
C    9.3123205650    6.0607777641    36.194113060700005    S
C    9.1943265343    7.5397230213    35.9703266897    S
C    7.9793396209    8.0594591142    36.7425818135    S
C    8.3326513332    9.1760604853    37.5704355174    S
C    7.5450874170    9.5112606882    38.6970368074    S
C    6.4088283681    8.6946517607    39.0502394015    S
C    6.3468029178    8.6036723339    40.4970456289    S
C    7.4506652595    9.3817183268    41.036853488700004    S
C    8.1821734059    9.9443308283    39.91744676650001    S
C    9.5780809246    10.0241375417    39.9637573406    S
H    8.9024541646    7.1488618471    33.7721622875    S
H    8.4269533737    8.7708891096    34.3263283195    S
S    9.1310847060    5.3502882372    28.3562968863    S
H    10.4743576408    10.2101746479    35.319401522700005    S
H    12.0308801119    9.3441366949    35.2913643986    S
Au    8.7768458809    6.7556041236    47.36046    R0
Au    0.0000000000    0.0000000000    49.6694922578    R0
Au    8.7600000000    0.0000000000    49.6694922578    R0
Au    4.3800000000    7.5863820000    49.6694922578    R0
Au    13.1400000000    7.5863820000    49.6694922578    R0
Au    2.9200000000    0.0000000000    49.6694922578    R0
Au    11.6800000000    0.0000000000    49.6694922578    R0
Au    7.3000000000    7.5863820000    49.6694922578    R0
Au    16.0599990000    7.5863820000    49.6694922578    R0
Au    5.8400000000    0.0000000000    49.6694922578    R0
Au    14.6000000000    0.0000000000    49.6694922578    R0
Au    10.2200000000    7.5863820000    49.6694922578    R0
Au    18.9800000000    7.5863820000    49.6694922578    R0
Au    1.4600000000    2.5287940000    49.6694922578    R0
Au    10.2200000000    2.5287940000    49.6694922578    R0
Au    5.8400000000    10.1151760000    49.6694922578    R0
Au    14.6000000000    10.1151760000    49.6694922578    R0
Au    4.3800000000    2.5287940000    49.6694922578    R0
Au    13.1400000000    2.5287940000    49.6694922578    R0
Au    8.7600000000    10.1151760000    49.6694922578    R0
Au    17.5200000000    10.1151760000    49.6694922578    R0
Au    7.3000000000    2.5287940000    49.6694922578    R0
Au    16.0599990000    2.5287940000    49.6694922578    R0
Au    11.6800000000    10.1151760000    49.6694922578    R0
Au    20.4400010000    10.1151760000    49.6694922578    R0
Au    2.9200000000    5.0575880000    49.6694922578    R0
Au    11.6800000000    5.0575880000    49.6694922578    R0
Au    5.8400000000    5.0575880000    49.6694922578    R0
Au    14.6000000000    5.0575880000    49.6694922578    R0
Au    8.7600000000    5.0575880000    49.6694922578    R0
Au    17.5200000000    5.0575880000    49.6694922578    R0
Au    1.4600000000    0.8429310000    52.0536622578    R0
Au    10.2200000000    0.8429310000    52.0536622578    R0
Au    5.8400000000    8.4293140000    52.0536622578    R0
Au    14.6000000000    8.4293140000    52.0536622578    R0
Au    4.3800000000    0.8429310000    52.0536622578    R0
Au    13.1400000000    0.8429310000    52.0536622578    R0
Au    8.7600000000    8.4293140000    52.0536622578    R0
Au    17.5200000000    8.4293140000    52.0536622578    R0
Au    7.3000000000    0.8429310000    52.0536622578    R0
Au    16.0599990000    0.8429310000    52.0536622578    R0
Au    11.6800000000    8.4293140000    52.0536622578    R0
Au    20.4400010000    8.4293140000    52.0536622578    R0
Au    2.9200000000    3.3717260000    52.0536622578    R0
Au    11.6800000000    3.3717260000    52.0536622578    R0
Au    7.3000000000    10.9581080000    52.0536622578    R0
Au    16.0599990000    10.9581080000    52.0536622578    R0
Au    5.8400000000    3.3717260000    52.0536622578    R0
Au    14.6000000000    3.3717260000    52.0536622578    R0
Au    10.2200000000    10.9581080000    52.0536622578    R0
Au    18.9800000000    10.9581080000    52.0536622578    R0
Au    8.7600000000    3.3717260000    52.0536622578    R0
Au    17.5200000000    3.3717260000    52.0536622578    R0
Au    13.1400000000    10.9581080000    52.0536622578    R0
Au    21.9000000000    10.9581080000    52.0536622578    R0
Au    4.3800000000    5.9005200000    52.0536622578    R0
Au    13.1400000000    5.9005200000    52.0536622578    R0
Au    7.3000000000    5.9005200000    52.0536622578    R0
Au    16.0599990000    5.9005200000    52.0536622578    R0
Au    10.2200000000    5.9005200000    52.0536622578    R0
Au    18.9800000000    5.9005200000    52.0536622578    R0
Au    0.0000000000    1.6858630000    54.4378322578    R0
Au    8.7600000000    1.6858630000    54.4378322578    R0
Au    4.3800000000    9.2722450000    54.4378322578    R0
Au    13.1400000000    9.2722450000    54.4378322578    R0
Au    2.9200000000    1.6858630000    54.4378322578    R0
Au    11.6800000000    1.6858630000    54.4378322578    R0
Au    7.3000000000    9.2722450000    54.4378322578    R0
Au    16.0599990000    9.2722450000    54.4378322578    R0
Au    5.8400000000    1.6858630000    54.4378322578    R0
Au    14.6000000000    1.6858630000    54.4378322578    R0
Au    10.2200000000    9.2722450000    54.4378322578    R0
Au    18.9800000000    9.2722450000    54.4378322578    R0
Au    1.4600000000    4.2146570000    54.4378322578    R0
Au    10.2200000000    4.2146570000    54.4378322578    R0
Au    5.8400000000    11.8010400000    54.4378322578    R0
Au    14.6000000000    11.8010400000    54.4378322578    R0
Au    4.3800000000    4.2146570000    54.4378322578    R0
Au    13.1400000000    4.2146570000    54.4378322578    R0
Au    8.7600000000    11.8010400000    54.4378322578    R0
Au    17.5200000000    11.8010400000    54.4378322578    R0
Au    7.3000000000    4.2146570000    54.4378322578    R0
Au    16.0599990000    4.2146570000    54.4378322578    R0
Au    11.6800000000    11.8010400000    54.4378322578    R0
Au    20.4400010000    11.8010400000    54.4378322578    R0
Au    2.9200000000    6.7434510000    54.4378322578    R0
Au    11.6800000000    6.7434510000    54.4378322578    R0
Au    5.8400000000    6.7434510000    54.4378322578    R0
Au    14.6000000000    6.7434510000    54.4378322578    R0
Au    8.7600000000    6.7434510000    54.4378322578    R0
Au    17.5200000000    6.7434510000    54.4378322578    R0
Au    0.000000    0.000000    56.8219922578    R1
Au    8.760000    0.000000    56.8219922578    R1
Au    4.380000    7.586382    56.8219922578    R1
Au    13.140000    7.586382    56.8219922578    R1
Au    2.920000    0.000000    56.8219922578    R1
Au    11.680000    0.000000    56.8219922578    R1
Au    7.300000    7.586382    56.8219922578    R1
Au    16.059999    7.586382    56.8219922578    R1
Au    5.840000    0.000000    56.8219922578    R1
Au    14.600000    0.000000    56.8219922578    R1
Au    10.220000    7.586382    56.8219922578    R1
Au    18.980000    7.586382    56.8219922578    R1
Au    1.460000    2.528794    56.8219922578    R1
Au    10.220000    2.528794    56.8219922578    R1
Au    5.840000    10.115176    56.8219922578    R1
Au    14.600000    10.115176    56.8219922578    R1
Au    4.380000    2.528794    56.8219922578    R1
Au    13.140000    2.528794    56.8219922578    R1
Au    8.760000    10.115176    56.8219922578    R1
Au    17.520000    10.115176    56.8219922578    R1
Au    7.300000    2.528794    56.8219922578    R1
Au    16.059999    2.528794    56.8219922578    R1
Au    11.680000    10.115176    56.8219922578    R1
Au    20.440001    10.115176    56.8219922578    R1
Au    2.920000    5.057588    56.8219922578    R1
Au    11.680000    5.057588    56.8219922578    R1
Au    5.840000    5.057588    56.8219922578    R1
Au    14.600000    5.057588    56.8219922578    R1
Au    8.760000    5.057588    56.8219922578    R1
Au    17.520000    5.057588    56.8219922578    R1
Au    1.460000    0.842931    59.2061622578    R1
Au    10.220000    0.842931    59.2061622578    R1
Au    5.840000    8.429314    59.2061622578    R1
Au    14.600000    8.429314    59.2061622578    R1
Au    4.380000    0.842931    59.2061622578    R1
Au    13.140000    0.842931    59.2061622578    R1
Au    8.760000    8.429314    59.2061622578    R1
Au    17.520000    8.429314    59.2061622578    R1
Au    7.300000    0.842931    59.2061622578    R1