     902
 i =       72, E =     -6434.2718402668
Au    0.000000    0.000000    0.000000    L3
Au    8.760000    0.000000    0.000000    L3
Au    4.380000    7.586382    0.000000    L3
Au    13.140000    7.586382    0.000000    L3
Au    2.920000    0.000000    0.000000    L3
Au    11.680000    0.000000    0.000000    L3
Au    7.300000    7.586382    0.000000    L3
Au    16.059999    7.586382    0.000000    L3
Au    5.840000    0.000000    0.000000    L3
Au    14.600000    0.000000    0.000000    L3
Au    10.220000    7.586382    0.000000    L3
Au    18.980000    7.586382    0.000000    L3
Au    1.460000    2.528794    0.000000    L3
Au    10.220000    2.528794    0.000000    L3
Au    5.840000    10.115176    0.000000    L3
Au    14.600000    10.115176    0.000000    L3
Au    4.380000    2.528794    0.000000    L3
Au    13.140000    2.528794    0.000000    L3
Au    8.760000    10.115176    0.000000    L3
Au    17.520000    10.115176    0.000000    L3
Au    7.300000    2.528794    0.000000    L3
Au    16.059999    2.528794    0.000000    L3
Au    11.680000    10.115176    0.000000    L3
Au    20.440001    10.115176    0.000000    L3
Au    2.920000    5.057588    0.000000    L3
Au    11.680000    5.057588    0.000000    L3
Au    5.840000    5.057588    0.000000    L3
Au    14.600000    5.057588    0.000000    L3
Au    8.760000    5.057588    0.000000    L3
Au    17.520000    5.057588    0.000000    L3
Au    1.460000    0.842931    2.384170    L3
Au    10.220000    0.842931    2.384170    L3
Au    5.840000    8.429314    2.384170    L3
Au    14.600000    8.429314    2.384170    L3
Au    4.380000    0.842931    2.384170    L3
Au    13.140000    0.842931    2.384170    L3
Au    8.760000    8.429314    2.384170    L3
Au    17.520000    8.429314    2.384170    L3
Au    7.300000    0.842931    2.384170    L3
Au    16.059999    0.842931    2.384170    L3
Au    11.680000    8.429314    2.384170    L3
Au    20.440001    8.429314    2.384170    L3
Au    2.920000    3.371726    2.384170    L3
Au    11.680000    3.371726    2.384170    L3
Au    7.300000    10.958108    2.384170    L3
Au    16.059999    10.958108    2.384170    L3
Au    5.840000    3.371726    2.384170    L3
Au    14.600000    3.371726    2.384170    L3
Au    10.220000    10.958108    2.384170    L3
Au    18.980000    10.958108    2.384170    L3
Au    8.760000    3.371726    2.384170    L3
Au    17.520000    3.371726    2.384170    L3
Au    13.140000    10.958108    2.384170    L3
Au    21.900000    10.958108    2.384170    L3
Au    4.380000    5.900520    2.384170    L3
Au    13.140000    5.900520    2.384170    L3
Au    7.300000    5.900520    2.384170    L3
Au    16.059999    5.900520    2.384170    L3
Au    10.220000    5.900520    2.384170    L3
Au    18.980000    5.900520    2.384170    L3
Au    0.000000    1.685863    4.768340    L3
Au    8.760000    1.685863    4.768340    L3
Au    4.380000    9.272245    4.768340    L3
Au    13.140000    9.272245    4.768340    L3
Au    2.920000    1.685863    4.768340    L3
Au    11.680000    1.685863    4.768340    L3
Au    7.300000    9.272245    4.768340    L3
Au    16.059999    9.272245    4.768340    L3
Au    5.840000    1.685863    4.768340    L3
Au    14.600000    1.685863    4.768340    L3
Au    10.220000    9.272245    4.768340    L3
Au    18.980000    9.272245    4.768340    L3
Au    1.460000    4.214657    4.768340    L3
Au    10.220000    4.214657    4.768340    L3
Au    5.840000    11.801040    4.768340    L3
Au    14.600000    11.801040    4.768340    L3
Au    4.380000    4.214657    4.768340    L3
Au    13.140000    4.214657    4.768340    L3
Au    8.760000    11.801040    4.768340    L3
Au    17.520000    11.801040    4.768340    L3
Au    7.300000    4.214657    4.768340    L3
Au    16.059999    4.214657    4.768340    L3
Au    11.680000    11.801040    4.768340    L3
Au    20.440001    11.801040    4.768340    L3
Au    2.920000    6.743451    4.768340    L3
Au    11.680000    6.743451    4.768340    L3
Au    5.840000    6.743451    4.768340    L3
Au    14.600000    6.743451    4.768340    L3
Au    8.760000    6.743451    4.768340    L3
Au    17.520000    6.743451    4.768340    L3
Au    0.000000    0.000000    7.152510    L2
Au    8.760000    0.000000    7.152510    L2
Au    4.380000    7.586382    7.152510    L2
Au    13.140000    7.586382    7.152510    L2
Au    2.920000    0.000000    7.152510    L2
Au    11.680000    0.000000    7.152510    L2
Au    7.300000    7.586382    7.152510    L2
Au    16.059999    7.586382    7.152510    L2
Au    5.840000    0.000000    7.152510    L2
Au    14.600000    0.000000    7.152510    L2
Au    10.220000    7.586382    7.152510    L2
Au    18.980000    7.586382    7.152510    L2
Au    1.460000    2.528794    7.152510    L2
Au    10.220000    2.528794    7.152510    L2
Au    5.840000    10.115176    7.152510    L2
Au    14.600000    10.115176    7.152510    L2
Au    4.380000    2.528794    7.152510    L2
Au    13.140000    2.528794    7.152510    L2
Au    8.760000    10.115176    7.152510    L2
Au    17.520000    10.115176    7.152510    L2
Au    7.300000    2.528794    7.152510    L2
Au    16.059999    2.528794    7.152510    L2
Au    11.680000    10.115176    7.152510    L2
Au    20.440001    10.115176    7.152510    L2
Au    2.920000    5.057588    7.152510    L2
Au    11.680000    5.057588    7.152510    L2
Au    5.840000    5.057588    7.152510    L2
Au    14.600000    5.057588    7.152510    L2
Au    8.760000    5.057588    7.152510    L2
Au    17.520000    5.057588    7.152510    L2
Au    1.460000    0.842931    9.536680    L2
Au    10.220000    0.842931    9.536680    L2
Au    5.840000    8.429314    9.536680    L2
Au    14.600000    8.429314    9.536680    L2
Au    4.380000    0.842931    9.536680    L2
Au    13.140000    0.842931    9.536680    L2
Au    8.760000    8.429314    9.536680    L2
Au    17.520000    8.429314    9.536680    L2
Au    7.300000    0.842931    9.536680    L2
Au    16.059999    0.842931    9.536680    L2
Au    11.680000    8.429314    9.536680    L2
Au    20.440001    8.429314    9.536680    L2
Au    2.920000    3.371726    9.536680    L2
Au    11.680000    3.371726    9.536680    L2
Au    7.300000    10.958108    9.536680    L2
Au    16.059999    10.958108    9.536680    L2
Au    5.840000    3.371726    9.536680    L2
Au    14.600000    3.371726    9.536680    L2
Au    10.220000    10.958108    9.536680    L2
Au    18.980000    10.958108    9.536680    L2
Au    8.760000    3.371726    9.536680    L2
Au    17.520000    3.371726    9.536680    L2
Au    13.140000    10.958108    9.536680    L2
Au    21.900000    10.958108    9.536680    L2
Au    4.380000    5.900520    9.536680    L2
Au    13.140000    5.900520    9.536680    L2
Au    7.300000    5.900520    9.536680    L2
Au    16.059999    5.900520    9.536680    L2
Au    10.220000    5.900520    9.536680    L2
Au    18.980000    5.900520    9.536680    L2
Au    0.000000    1.685863    11.920850    L2
Au    8.760000    1.685863    11.920850    L2
Au    4.380000    9.272245    11.920850    L2
Au    13.140000    9.272245    11.920850    L2
Au    2.920000    1.685863    11.920850    L2
Au    11.680000    1.685863    11.920850    L2
Au    7.300000    9.272245    11.920850    L2
Au    16.059999    9.272245    11.920850    L2
Au    5.840000    1.685863    11.920850    L2
Au    14.600000    1.685863    11.920850    L2
Au    10.220000    9.272245    11.920850    L2
Au    18.980000    9.272245    11.920850    L2
Au    1.460000    4.214657    11.920850    L2
Au    10.220000    4.214657    11.920850    L2
Au    5.840000    11.801040    11.920850    L2
Au    14.600000    11.801040    11.920850    L2
Au    4.380000    4.214657    11.920850    L2
Au    13.140000    4.214657    11.920850    L2
Au    8.760000    11.801040    11.920850    L2
Au    17.520000    11.801040    11.920850    L2
Au    7.300000    4.214657    11.920850    L2
Au    16.059999    4.214657    11.920850    L2
Au    11.680000    11.801040    11.920850    L2
Au    20.440001    11.801040    11.920850    L2
Au    2.920000    6.743451    11.920850    L2
Au    11.680000    6.743451    11.920850    L2
Au    5.840000    6.743451    11.920850    L2
Au    14.600000    6.743451    11.920850    L2
Au    8.760000    6.743451    11.920850    L2
Au    17.520000    6.743451    11.920850    L2
Au    0.000000    0.000000    14.305019    L1
Au    8.760000    0.000000    14.305019    L1
Au    4.380000    7.586382    14.305019    L1
Au    13.140000    7.586382    14.305019    L1
Au    2.920000    0.000000    14.305019    L1
Au    11.680000    0.000000    14.305019    L1
Au    7.300000    7.586382    14.305019    L1
Au    16.059999    7.586382    14.305019    L1
Au    5.840000    0.000000    14.305019    L1
Au    14.600000    0.000000    14.305019    L1
Au    10.220000    7.586382    14.305019    L1
Au    18.980000    7.586382    14.305019    L1
Au    1.460000    2.528794    14.305019    L1
Au    10.220000    2.528794    14.305019    L1
Au    5.840000    10.115176    14.305019    L1
Au    14.600000    10.115176    14.305019    L1
Au    4.380000    2.528794    14.305019    L1
Au    13.140000    2.528794    14.305019    L1
Au    8.760000    10.115176    14.305019    L1
Au    17.520000    10.115176    14.305019    L1
Au    7.300000    2.528794    14.305019    L1
Au    16.059999    2.528794    14.305019    L1
Au    11.680000    10.115176    14.305019    L1
Au    20.440001    10.115176    14.305019    L1
Au    2.920000    5.057588    14.305019    L1
Au    11.680000    5.057588    14.305019    L1
Au    5.840000    5.057588    14.305019    L1
Au    14.600000    5.057588    14.305019    L1
Au    8.760000    5.057588    14.305019    L1
Au    17.520000    5.057588    14.305019    L1
Au    1.460000    0.842931    16.689190    L1
Au    10.220000    0.842931    16.689190    L1
Au    5.840000    8.429314    16.689190    L1
Au    14.600000    8.429314    16.689190    L1
Au    4.380000    0.842931    16.689190    L1
Au    13.140000    0.842931    16.689190    L1
Au    8.760000    8.429314    16.689190    L1
Au    17.520000    8.429314    16.689190    L1
Au    7.300000    0.842931    16.689190    L1
Au    16.059999    0.842931    16.689190    L1
Au    11.680000    8.429314    16.689190    L1
Au    20.440001    8.429314    16.689190    L1
Au    2.920000    3.371726    16.689190    L1
Au    11.680000    3.371726    16.689190    L1
Au    7.300000    10.958108    16.689190    L1
Au    16.059999    10.958108    16.689190    L1
Au    5.840000    3.371726    16.689190    L1
Au    14.600000    3.371726    16.689190    L1
Au    10.220000    10.958108    16.689190    L1
Au    18.980000    10.958108    16.689190    L1
Au    8.760000    3.371726    16.689190    L1
Au    17.520000    3.371726    16.689190    L1
Au    13.140000    10.958108    16.689190    L1
Au    21.900000    10.958108    16.689190    L1
Au    4.380000    5.900520    16.689190    L1
Au    13.140000    5.900520    16.689190    L1
Au    7.300000    5.900520    16.689190    L1
Au    16.059999    5.900520    16.689190    L1
Au    10.220000    5.900520    16.689190    L1
Au    18.980000    5.900520    16.689190    L1
Au    0.000000    1.685863    19.073360    L1
Au    8.760000    1.685863    19.073360    L1
Au    4.380000    9.272245    19.073360    L1
Au    13.140000    9.272245    19.073360    L1
Au    2.920000    1.685863    19.073360    L1
Au    11.680000    1.685863    19.073360    L1
Au    7.300000    9.272245    19.073360    L1
Au    16.059999    9.272245    19.073360    L1
Au    5.840000    1.685863    19.073360    L1
Au    14.600000    1.685863    19.073360    L1
Au    10.220000    9.272245    19.073360    L1
Au    18.980000    9.272245    19.073360    L1
Au    1.460000    4.214657    19.073360    L1
Au    10.220000    4.214657    19.073360    L1
Au    5.840000    11.801040    19.073360    L1
Au    14.600000    11.801040    19.073360    L1
Au    4.380000    4.214657    19.073360    L1
Au    13.140000    4.214657    19.073360    L1
Au    8.760000    11.801040    19.073360    L1
Au    17.520000    11.801040    19.073360    L1
Au    7.300000    4.214657    19.073360    L1
Au    16.059999    4.214657    19.073360    L1
Au    11.680000    11.801040    19.073360    L1
Au    20.440001    11.801040    19.073360    L1
Au    2.920000    6.743451    19.073360    L1
Au    11.680000    6.743451    19.073360    L1
Au    5.840000    6.743451    19.073360    L1
Au    14.600000    6.743451    19.073360    L1
Au    8.760000    6.743451    19.073360    L1
Au    17.520000    6.743451    19.073360    L1
Au    0.0000000000    0.0000000000    21.457530000000002    L0
Au    8.7600000000    0.0000000000    21.457530000000002    L0
Au    4.3800000000    7.5863820000    21.457530000000002    L0
Au    13.1400000000    7.5863820000    21.457530000000002    L0
Au    2.9200000000    0.0000000000    21.457530000000002    L0
Au    11.6800000000    0.0000000000    21.457530000000002    L0
Au    7.3000000000    7.5863820000    21.457530000000002    L0
Au    16.0599990000    7.5863820000    21.457530000000002    L0
Au    5.8400000000    0.0000000000    21.457530000000002    L0
Au    14.6000000000    0.0000000000    21.457530000000002    L0
Au    10.2200000000    7.5863820000    21.457530000000002    L0
Au    18.9800000000    7.5863820000    21.457530000000002    L0
Au    1.4600000000    2.5287940000    21.457530000000002    L0
Au    10.2200000000    2.5287940000    21.457530000000002    L0
Au    5.8400000000    10.1151760000    21.457530000000002    L0
Au    14.6000000000    10.1151760000    21.457530000000002    L0
Au    4.3800000000    2.5287940000    21.457530000000002    L0
Au    13.1400000000    2.5287940000    21.457530000000002    L0
Au    8.7600000000    10.1151760000    21.457530000000002    L0
Au    17.5200000000    10.1151760000    21.457530000000002    L0
Au    7.3000000000    2.5287940000    21.457530000000002    L0
Au    16.0599990000    2.5287940000    21.457530000000002    L0
Au    11.6800000000    10.1151760000    21.457530000000002    L0
Au    20.4400010000    10.1151760000    21.457530000000002    L0
Au    2.9200000000    5.0575880000    21.457530000000002    L0
Au    11.6800000000    5.0575880000    21.457530000000002    L0
Au    5.8400000000    5.0575880000    21.457530000000002    L0
Au    14.6000000000    5.0575880000    21.457530000000002    L0
Au    8.7600000000    5.0575880000    21.457530000000002    L0
Au    17.5200000000    5.0575880000    21.457530000000002    L0
Au    1.4600000000    0.8429310000    23.841700000000003    L0
Au    10.2200000000    0.8429310000    23.841700000000003    L0
Au    5.8400000000    8.4293140000    23.841700000000003    L0
Au    14.6000000000    8.4293140000    23.841700000000003    L0
Au    4.3800000000    0.8429310000    23.841700000000003    L0
Au    13.1400000000    0.8429310000    23.841700000000003    L0
Au    8.7600000000    8.4293140000    23.841700000000003    L0
Au    17.5200000000    8.4293140000    23.841700000000003    L0
Au    7.3000000000    0.8429310000    23.841700000000003    L0
Au    16.0599990000    0.8429310000    23.841700000000003    L0
Au    11.6800000000    8.4293140000    23.841700000000003    L0
Au    20.4400010000    8.4293140000    23.841700000000003    L0
Au    2.9200000000    3.3717260000    23.841700000000003    L0
Au    11.6800000000    3.3717260000    23.841700000000003    L0
Au    7.3000000000    10.9581080000    23.841700000000003    L0
Au    16.0599990000    10.9581080000    23.841700000000003    L0
Au    5.8400000000    3.3717260000    23.841700000000003    L0
Au    14.6000000000    3.3717260000    23.841700000000003    L0
Au    10.2200000000    10.9581080000    23.841700000000003    L0
Au    18.9800000000    10.9581080000    23.841700000000003    L0
Au    8.7600000000    3.3717260000    23.841700000000003    L0
Au    17.5200000000    3.3717260000    23.841700000000003    L0
Au    13.1400000000    10.9581080000    23.841700000000003    L0
Au    21.9000000000    10.9581080000    23.841700000000003    L0
Au    4.3800000000    5.9005200000    23.841700000000003    L0
Au    13.1400000000    5.9005200000    23.841700000000003    L0
Au    7.3000000000    5.9005200000    23.841700000000003    L0
Au    16.0599990000    5.9005200000    23.841700000000003    L0
Au    10.2200000000    5.9005200000    23.841700000000003    L0
Au    18.9800000000    5.9005200000    23.841700000000003    L0
Au    0.0000000000    1.6858630000    26.22587    L0
Au    8.7600000000    1.6858630000    26.22587    L0
Au    4.3800000000    9.2722450000    26.22587    L0
Au    13.1400000000    9.2722450000    26.22587    L0
Au    2.9200000000    1.6858630000    26.22587    L0
Au    11.6800000000    1.6858630000    26.22587    L0
Au    7.3000000000    9.2722450000    26.22587    L0
Au    16.0599990000    9.2722450000    26.22587    L0
Au    5.8400000000    1.6858630000    26.22587    L0
Au    14.6000000000    1.6858630000    26.22587    L0
Au    10.2200000000    9.2722450000    26.22587    L0
Au    18.9800000000    9.2722450000    26.22587    L0
Au    1.4600000000    4.2146570000    26.22587    L0
Au    10.2200000000    4.2146570000    26.22587    L0
Au    5.8400000000    11.8010400000    26.22587    L0
Au    14.6000000000    11.8010400000    26.22587    L0
Au    4.3800000000    4.2146570000    26.22587    L0
Au    13.1400000000    4.2146570000    26.22587    L0
Au    8.7600000000    11.8010400000    26.22587    L0
Au    17.5200000000    11.8010400000    26.22587    L0
Au    7.3000000000    4.2146570000    26.22587    L0
Au    16.0599990000    4.2146570000    26.22587    L0
Au    11.6800000000    11.8010400000    26.22587    L0
Au    20.4400010000    11.8010400000    26.22587    L0
Au    2.9200000000    6.7434510000    26.22587    L0
Au    11.6800000000    6.7434510000    26.22587    L0
Au    5.8400000000    6.7434510000    26.22587    L0
Au    14.6000000000    6.7434510000    26.22587    L0
Au    8.7600000000    6.7434510000    26.22587    L0
Au    17.5200000000    6.7434510000    26.22587    L0
H    11.7038056712    5.3529211337    32.5144792935    S
C    11.2858226335    5.9901507494    31.7327749736    S
C    11.2673016993    7.3803851245    31.9083407333    S
C    10.7345771905    8.1789132529    30.882895567600002    S
H    10.7189645728    9.2632769330    31.001731382800003    S
C    10.1812222511    7.6044125990    29.7422349186    S
H    9.7353540669    8.2335830392    28.9703199355    S
C    10.1561493987    6.2056644188    29.6005140249    S
C    10.7477225255    5.4011055019    30.589519757700003    S
H    10.7463948866    4.3167055760    30.479371616900004    S
C    11.7751330912    7.9983499117    33.189894026000005    S
N    10.7880499131    8.9242828898    33.7848089234    S
H    12.6789869672    8.5956337560    32.9872871906    S
H    12.0736741869    7.1942013927    33.8871189947    S
C    11.2272892211    9.6080023616    34.9844508914    S
C    9.4883982170    8.3651116512    34.1043656856    S
C    8.5143932909    8.9708256132    41.87025067810001    S
C    8.1643774125    7.6905038137    42.4549430822    S
C    9.3887432862    7.0317604944    42.8653670722    S
C    10.5044354391    7.9059015882    42.536628833900004    S
C    9.9621023823    9.1025063664    41.9155092379    S
C    10.6431044163    9.7054996341    40.853774296    S
C    11.8957035239    9.1496555739    40.376148589500005    S
C    12.4212073467    7.9992306068    40.9794250442    S
C    11.7063581624    7.3643318755    42.0744362585    S
C    11.8431446862    5.9239103415    41.9214446753    S
C    10.7713571387    5.0830402069    42.2346489222    S
C    9.5205801542    5.6459572584    42.717332566    S
C    8.4321592048    4.8683397245    42.1584695405    S
C    7.2472723403    5.5016102640    41.7656719907    S
C    7.1100553361    6.9370898576    41.9135544105    S
C    6.3722813303    7.4406746955    40.7710756875    S
C    6.0556615591    6.3115625826    39.9104646552    S
C    6.5909623720    5.1097373602    40.5278510523    S
C    7.1413067036    4.1024651850    39.7315588675    S
C    8.3726299426    3.4439498481    40.1402728041    S
C    9.0054658371    3.8213804321    41.32827239    S
C    10.4515062553    3.9568562006    41.373853555500006    S
C    11.2114950843    3.7189587846    40.2244934437    S
C    12.3216598956    4.5965813530    39.8951706137    S
C    12.6380315159    5.6759821092    40.731602835100006    S
C    12.9944390507    6.9562911719    40.1511927063    S
C    13.0187624343    7.1082084987    38.759214742    S
C    12.4722999864    8.3002108317    38.135806309900005    S
C    11.9350220921    9.3045145556    38.9337643266    S
C    10.6847257548    9.9467112375    38.5140234797    S
C    10.0725799274    9.5869025629    37.322772310800005    S
C    10.7532205955    8.7424892336    36.242307773600004    S
C    11.8362549378    7.9224327235    36.8796901864    S
C    11.9366995039    6.5319299195    36.7562115539    S
C    12.6820404682    5.9968732471    37.9023256266    S
C    12.3449371127    4.7670082267    38.4573237422    S
C    11.2456230218    3.9809325668    37.8928480116    S
C    10.5534999988    3.3331247636    38.987687352500004    S
C    9.1595785445    3.1901446732    38.9463482139    S
C    8.4188246289    3.6866707242    37.8025968943    S
C    7.1724965332    4.2488851065    38.285466862700005    S
C    6.6618449664    5.4103281399    37.6901068431    S
C    6.0972800424    6.4580135774    38.520883295900006    S
C    6.4651784243    7.7383953071    37.94077407    S
C    7.2530062668    7.4942891000    36.7537856809    S
C    7.3679074534    6.0411892945    36.5905859379    S
C    8.5699104371    5.5116491073    36.133601009    S
C    9.0993290664    4.3071864711    36.7472192599    S
C    10.5336615513    4.4606300811    36.798793073    S
C    10.8612784067    5.7624767734    36.2037605874    S
C    9.6822541557    6.3831942770    35.7772768792    S
C    9.5287098097    7.8667152662    35.617755908    S
C    8.3113611604    8.3262896554    36.4216869401    S
C    8.6484025381    9.4163687741    37.290523779500006    S
C    7.8659559551    9.6863640783    38.4377821251    S
C    6.7522174750    8.8296958910    38.7678131946    S
C    6.7080897086    8.6774101690    40.210019844200005    S
C    7.8000349698    9.4577630617    40.7706068681    S
C    8.5067152607    10.0832074878    39.668412742    S
C    9.9010916032    10.1930480747    39.7038455868    S
H    9.2109753435    7.5632882406    33.4113152655    S
H    8.7247907726    9.1555086377    34.038008028600004    S
S    9.1820942116    5.3924585464    28.360750002800003    S
H    10.7300046301    10.5880482622    35.0549610204    S
H    12.3117182475    9.7709301913    34.982686568800005    S
Au    8.7768458809    6.7556041236    48.36046    R0
Au    0.0000000000    0.0000000000    50.6694922578    R0
Au    8.7600000000    0.0000000000    50.6694922578    R0
Au    4.3800000000    7.5863820000    50.6694922578    R0
Au    13.1400000000    7.5863820000    50.6694922578    R0
Au    2.9200000000    0.0000000000    50.6694922578    R0
Au    11.6800000000    0.0000000000    50.6694922578    R0
Au    7.3000000000    7.5863820000    50.6694922578    R0
Au    16.0599990000    7.5863820000    50.6694922578    R0
Au    5.8400000000    0.0000000000    50.6694922578    R0
Au    14.6000000000    0.0000000000    50.6694922578    R0
Au    10.2200000000    7.5863820000    50.6694922578    R0
Au    18.9800000000    7.5863820000    50.6694922578    R0
Au    1.4600000000    2.5287940000    50.6694922578    R0
Au    10.2200000000    2.5287940000    50.6694922578    R0
Au    5.8400000000    10.1151760000    50.6694922578    R0
Au    14.6000000000    10.1151760000    50.6694922578    R0
Au    4.3800000000    2.5287940000    50.6694922578    R0
Au    13.1400000000    2.5287940000    50.6694922578    R0
Au    8.7600000000    10.1151760000    50.6694922578    R0
Au    17.5200000000    10.1151760000    50.6694922578    R0
Au    7.3000000000    2.5287940000    50.6694922578    R0
Au    16.0599990000    2.5287940000    50.6694922578    R0
Au    11.6800000000    10.1151760000    50.6694922578    R0
Au    20.4400010000    10.1151760000    50.6694922578    R0
Au    2.9200000000    5.0575880000    50.6694922578    R0
Au    11.6800000000    5.0575880000    50.6694922578    R0
Au    5.8400000000    5.0575880000    50.6694922578    R0
Au    14.6000000000    5.0575880000    50.6694922578    R0
Au    8.7600000000    5.0575880000    50.6694922578    R0
Au    17.5200000000    5.0575880000    50.6694922578    R0
Au    1.4600000000    0.8429310000    53.0536622578    R0
Au    10.2200000000    0.8429310000    53.0536622578    R0
Au    5.8400000000    8.4293140000    53.0536622578    R0
Au    14.6000000000    8.4293140000    53.0536622578    R0
Au    4.3800000000    0.8429310000    53.0536622578    R0
Au    13.1400000000    0.8429310000    53.0536622578    R0
Au    8.7600000000    8.4293140000    53.0536622578    R0
Au    17.5200000000    8.4293140000    53.0536622578    R0
Au    7.3000000000    0.8429310000    53.0536622578    R0
Au    16.0599990000    0.8429310000    53.0536622578    R0
Au    11.6800000000    8.4293140000    53.0536622578    R0
Au    20.4400010000    8.4293140000    53.0536622578    R0
Au    2.9200000000    3.3717260000    53.0536622578    R0
Au    11.6800000000    3.3717260000    53.0536622578    R0
Au    7.3000000000    10.9581080000    53.0536622578    R0
Au    16.0599990000    10.9581080000    53.0536622578    R0
Au    5.8400000000    3.3717260000    53.0536622578    R0
Au    14.6000000000    3.3717260000    53.0536622578    R0
Au    10.2200000000    10.9581080000    53.0536622578    R0
Au    18.9800000000    10.9581080000    53.0536622578    R0
Au    8.7600000000    3.3717260000    53.0536622578    R0
Au    17.5200000000    3.3717260000    53.0536622578    R0
Au    13.1400000000    10.9581080000    53.0536622578    R0
Au    21.9000000000    10.9581080000    53.0536622578    R0
Au    4.3800000000    5.9005200000    53.0536622578    R0
Au    13.1400000000    5.9005200000    53.0536622578    R0
Au    7.3000000000    5.9005200000    53.0536622578    R0
Au    16.0599990000    5.9005200000    53.0536622578    R0
Au    10.2200000000    5.9005200000    53.0536622578    R0
Au    18.9800000000    5.9005200000    53.0536622578    R0
Au    0.0000000000    1.6858630000    55.4378322578    R0
Au    8.7600000000    1.6858630000    55.4378322578    R0
Au    4.3800000000    9.2722450000    55.4378322578    R0
Au    13.1400000000    9.2722450000    55.4378322578    R0
Au    2.9200000000    1.6858630000    55.4378322578    R0
Au    11.6800000000    1.6858630000    55.4378322578    R0
Au    7.3000000000    9.2722450000    55.4378322578    R0
Au    16.0599990000    9.2722450000    55.4378322578    R0
Au    5.8400000000    1.6858630000    55.4378322578    R0
Au    14.6000000000    1.6858630000    55.4378322578    R0
Au    10.2200000000    9.2722450000    55.4378322578    R0
Au    18.9800000000    9.2722450000    55.4378322578    R0
Au    1.4600000000    4.2146570000    55.4378322578    R0
Au    10.2200000000    4.2146570000    55.4378322578    R0
Au    5.8400000000    11.8010400000    55.4378322578    R0
Au    14.6000000000    11.8010400000    55.4378322578    R0
Au    4.3800000000    4.2146570000    55.4378322578    R0
Au    13.1400000000    4.2146570000    55.4378322578    R0
Au    8.7600000000    11.8010400000    55.4378322578    R0
Au    17.5200000000    11.8010400000    55.4378322578    R0
Au    7.3000000000    4.2146570000    55.4378322578    R0
Au    16.0599990000    4.2146570000    55.4378322578    R0
Au    11.6800000000    11.8010400000    55.4378322578    R0
Au    20.4400010000    11.8010400000    55.4378322578    R0
Au    2.9200000000    6.7434510000    55.4378322578    R0
Au    11.6800000000    6.7434510000    55.4378322578    R0
Au    5.8400000000    6.7434510000    55.4378322578    R0
Au    14.6000000000    6.7434510000    55.4378322578    R0
Au    8.7600000000    6.7434510000    55.4378322578    R0
Au    17.5200000000    6.7434510000    55.4378322578    R0
Au    0.000000    0.000000    57.8220022578    R1
Au    8.760000    0.000000    57.8220022578    R1
Au    4.380000    7.586382    57.8220022578    R1
Au    13.140000    7.586382    57.8220022578    R1
Au    2.920000    0.000000    57.8220022578    R1
Au    11.680000    0.000000    57.8220022578    R1
Au    7.300000    7.586382    57.8220022578    R1
Au    16.059999    7.586382    57.8220022578    R1
Au    5.840000    0.000000    57.8220022578    R1
Au    14.600000    0.000000    57.8220022578    R1
Au    10.220000    7.586382    57.8220022578    R1
Au    18.980000    7.586382    57.8220022578    R1
Au    1.460000    2.528794    57.8220022578    R1
Au    10.220000    2.528794    57.8220022578    R1
Au    5.840000    10.115176    57.8220022578    R1
Au    14.600000    10.115176    57.8220022578    R1
Au    4.380000    2.528794    57.8220022578    R1
Au    13.140000    2.528794    57.8220022578    R1
Au    8.760000    10.115176    57.8220022578    R1
Au    17.520000    10.115176    57.8220022578    R1
Au    7.300000    2.528794    57.8220022578    R1
Au    16.059999    2.528794    57.8220022578    R1
Au    11.680000    10.115176    57.8220022578    R1
Au    20.440001    10.115176    57.8220022578    R1
Au    2.920000    5.057588    57.8220022578    R1
Au    11.680000    5.057588    57.8220022578    R1
Au    5.840000    5.057588    57.8220022578    R1
Au    14.600000    5.057588    57.8220022578    R1
Au    8.760000    5.057588    57.8220022578    R1
Au    17.520000    5.057588    57.8220022578    R1
Au    1.460000    0.842931    60.206172257800006    R1
Au    10.220000    0.842931    60.206172257800006    R1
Au    5.840000    8.429314    60.206172257800006    R1
Au    14.600000    8.429314    60.206172257800006    R1
Au    4.380000    0.842931    60.206172257800006    R1
Au    13.140000    0.842931    60.206172257800006    R1
Au    8.760000    8.429314    60.206172257800006    R1
Au    17.520000    8.429314    60.206172257800006    R1