171
 i =        2, E =     -4007.4006044276
Au    0.000000    0.000000    0.000000
Au    8.760000    0.000000    0.000000
Au    4.380000    7.586382    0.000000
Au   13.140000    7.586382    0.000000
Au    2.920000    0.000000    0.000000
Au   11.680000    0.000000    0.000000
Au    7.300000    7.586382    0.000000
Au   16.059999    7.586382    0.000000
Au    5.840000    0.000000    0.000000
Au   14.600000    0.000000    0.000000
Au   10.220000    7.586382    0.000000
Au   18.980000    7.586382    0.000000
Au    1.460000    2.528794    0.000000
Au   10.220000    2.528794    0.000000
Au    5.840000   10.115176    0.000000
Au   14.600000   10.115176    0.000000
Au    4.380000    2.528794    0.000000
Au   13.140000    2.528794    0.000000
Au    8.760000   10.115176    0.000000
Au   17.520000   10.115176    0.000000
Au    7.300000    2.528794    0.000000
Au   16.059999    2.528794    0.000000
Au   11.680000   10.115176    0.000000
Au   20.440001   10.115176    0.000000
Au    2.920000    5.057588    0.000000
Au   11.680000    5.057588    0.000000
Au    5.840000    5.057588    0.000000
Au   14.600000    5.057588    0.000000
Au    8.760000    5.057588    0.000000
Au   17.520000    5.057588    0.000000
Au    1.460000    0.842931    2.384170
Au   10.220000    0.842931    2.384170
Au    5.840000    8.429314    2.384170
Au   14.600000    8.429314    2.384170
Au    4.380000    0.842931    2.384170
Au   13.140000    0.842931    2.384170
Au    8.760000    8.429314    2.384170
Au   17.520000    8.429314    2.384170
Au    7.300000    0.842931    2.384170
Au   16.059999    0.842931    2.384170
Au   11.680000    8.429314    2.384170
Au   20.440001    8.429314    2.384170
Au    2.920000    3.371726    2.384170
Au   11.680000    3.371726    2.384170
Au    7.300000   10.958108    2.384170
Au   16.059999   10.958108    2.384170
Au    5.840000    3.371726    2.384170
Au   14.600000    3.371726    2.384170
Au   10.220000   10.958108    2.384170
Au   18.980000   10.958108    2.384170
Au    8.760000    3.371726    2.384170
Au   17.520000    3.371726    2.384170
Au   13.140000   10.958108    2.384170
Au   21.900000   10.958108    2.384170
Au    4.380000    5.900520    2.384170
Au   13.140000    5.900520    2.384170
Au    7.300000    5.900520    2.384170
Au   16.059999    5.900520    2.384170
Au   10.220000    5.900520    2.384170
Au   18.980000    5.900520    2.384170
Au    0.000000    1.685863    4.768340
Au    8.760000    1.685863    4.768340
Au    4.380000    9.272245    4.768340
Au   13.140000    9.272245    4.768340
Au    2.920000    1.685863    4.768340
Au   11.680000    1.685863    4.768340
Au    7.300000    9.272245    4.768340
Au   16.059999    9.272245    4.768340
Au    5.840000    1.685863    4.768340
Au   14.600000    1.685863    4.768340
Au   10.220000    9.272245    4.768340
Au   18.980000    9.272245    4.768340
Au    1.460000    4.214657    4.768340
Au   10.220000    4.214657    4.768340
Au    5.840000   11.801040    4.768340
Au   14.600000   11.801040    4.768340
Au    4.380000    4.214657    4.768340
Au   13.140000    4.214657    4.768340
Au    8.760000   11.801040    4.768340
Au   17.520000   11.801040    4.768340
Au    7.300000    4.214657    4.768340
Au   16.059999    4.214657    4.768340
Au   11.680000   11.801040    4.768340
Au   20.440001   11.801040    4.768340
Au    2.920000    6.743451    4.768340
Au   11.680000    6.743451    4.768340
Au    5.840000    6.743451    4.768340
Au   14.600000    6.743451    4.768340
Au    8.760000    6.743451    4.768340
Au   17.520000    6.743451    4.768340
 H   11.754501    5.538782   11.027784
 C   11.322825    6.153418   10.235866
 C   11.287920    7.546879   10.381799
 C   10.736656    8.316096    9.343730
 H   10.710240    9.402961    9.435800
 C   10.175508    7.708957    8.223910
 H    9.709554    8.315754    7.446156
 C   10.167815    6.307217    8.112664
 C   10.783092    5.532349    9.110879
 H   10.797181    4.445988    9.023824
 C   11.792707    8.192067   11.649425
 N   10.793502    9.100990   12.257586
 H   12.679470    8.809985   11.432168
 H   12.119739    7.403005   12.350362
 C   11.196818    9.673118   13.526796
 C    9.463658    8.567781   12.479450
 C    8.199062    8.512091   20.225809
 C    7.787441    7.196904   20.677792
 C    8.974035    6.462530   21.070398
 C   10.127660    7.324140   20.864069
 C    9.647285    8.589831   20.335569
 C   10.387736    9.262685   19.359192
 C   11.640629    8.709577   18.878839
 C   12.106235    7.492032   19.393227
 C   11.330003    6.785910   20.398890
 C   11.428834    5.361243   20.120398
 C   10.320276    4.532607   20.316175
 C    9.069121    5.092001   20.801785
 C    7.980583    4.405410   20.135002
 C    6.831930    5.111562   19.758749
 C    6.732727    6.531800   20.032043
 C    6.056438    7.161010   18.913988
 C    5.739558    6.125366   17.943085
 C    6.213792    4.855437   18.467253
 C    6.764278    3.905800   17.602701
 C    7.957607    3.171192   17.994604
 C    8.554070    3.418325   19.234444
 C   10.000646    3.499871   19.345188
 C   10.797963    3.340230   18.207672
 C   11.946614    4.205801   18.000702
 C   12.262136    5.194472   18.942869
 C   12.680026    6.509058   18.494862
 C   12.764490    6.784654   17.124580
 C   12.279548    8.045947   16.592970
 C   11.741327    8.992046   17.459255
 C   10.529269    9.712368   17.054428
 C    9.954176    9.482430   15.813650
 C   10.650507    8.715136   14.686694
 C   11.682714    7.804993   15.285664
 C   11.744878    6.427284   15.040391
 C   12.428251    5.766640   16.158403
 C   12.032001    4.503770   16.586134
 C   10.932816    3.809195   15.912503
 C   10.178086    3.089709   16.917606
 C    8.783150    2.999227   16.812305
 C    8.103813    3.621794   15.692247
 C    6.857074    4.180882   16.178572
 C    6.405417    5.407734   15.673462
 C    5.840374    6.394893   16.575169
 C    6.269394    7.709168   16.128027
 C    7.096182    7.546088   14.953580
 C    7.173659    6.110722   14.663529
 C    8.376528    5.583461   14.204938
 C    8.844234    4.310852   14.723842
 C   10.279772    4.409330   14.841250
 C   10.670406    5.747451   14.381146
 C    9.527349    6.444744   13.973111
 C    9.425987    7.939609   13.943825
 C    8.192050    8.367924   14.738310
 C    8.527593    9.363902   15.714001
 C    7.708872    9.555696   16.851503
 C    6.557236    8.711014   17.061113
 C    6.451753    8.431079   18.480846
 C    7.543977    9.120158   19.149870
 C    8.312373    9.817849   18.135878
 C    9.706916    9.876779   18.232264
 H    9.180676    7.841712   11.710303
 H    8.735847    9.393605   12.457586
 S    9.195804    5.446663    6.904106
 H   10.717346   10.655347   13.660072
 H   12.283577    9.808729   13.583445
