     262
 i =       68, E =     -6434.1909013571
Au    0.0000000000    0.0000000000    0.0000000000    L0
Au    8.7600000000    0.0000000000    0.0000000000    L0
Au    4.3800000000    7.5863820000    0.0000000000    L0
Au    13.1400000000    7.5863820000    0.0000000000    L0
Au    2.9200000000    0.0000000000    0.0000000000    L0
Au    11.6800000000    0.0000000000    0.0000000000    L0
Au    7.3000000000    7.5863820000    0.0000000000    L0
Au    16.0599990000    7.5863820000    0.0000000000    L0
Au    5.8400000000    0.0000000000    0.0000000000    L0
Au    14.6000000000    0.0000000000    0.0000000000    L0
Au    10.2200000000    7.5863820000    0.0000000000    L0
Au    18.9800000000    7.5863820000    0.0000000000    L0
Au    1.4600000000    2.5287940000    0.0000000000    L0
Au    10.2200000000    2.5287940000    0.0000000000    L0
Au    5.8400000000    10.1151760000    0.0000000000    L0
Au    14.6000000000    10.1151760000    0.0000000000    L0
Au    4.3800000000    2.5287940000    0.0000000000    L0
Au    13.1400000000    2.5287940000    0.0000000000    L0
Au    8.7600000000    10.1151760000    0.0000000000    L0
Au    17.5200000000    10.1151760000    0.0000000000    L0
Au    7.3000000000    2.5287940000    0.0000000000    L0
Au    16.0599990000    2.5287940000    0.0000000000    L0
Au    11.6800000000    10.1151760000    0.0000000000    L0
Au    20.4400010000    10.1151760000    0.0000000000    L0
Au    2.9200000000    5.0575880000    0.0000000000    L0
Au    11.6800000000    5.0575880000    0.0000000000    L0
Au    5.8400000000    5.0575880000    0.0000000000    L0
Au    14.6000000000    5.0575880000    0.0000000000    L0
Au    8.7600000000    5.0575880000    0.0000000000    L0
Au    17.5200000000    5.0575880000    0.0000000000    L0
Au    1.4600000000    0.8429310000    2.3841700000    L0
Au    10.2200000000    0.8429310000    2.3841700000    L0
Au    5.8400000000    8.4293140000    2.3841700000    L0
Au    14.6000000000    8.4293140000    2.3841700000    L0
Au    4.3800000000    0.8429310000    2.3841700000    L0
Au    13.1400000000    0.8429310000    2.3841700000    L0
Au    8.7600000000    8.4293140000    2.3841700000    L0
Au    17.5200000000    8.4293140000    2.3841700000    L0
Au    7.3000000000    0.8429310000    2.3841700000    L0
Au    16.0599990000    0.8429310000    2.3841700000    L0
Au    11.6800000000    8.4293140000    2.3841700000    L0
Au    20.4400010000    8.4293140000    2.3841700000    L0
Au    2.9200000000    3.3717260000    2.3841700000    L0
Au    11.6800000000    3.3717260000    2.3841700000    L0
Au    7.3000000000    10.9581080000    2.3841700000    L0
Au    16.0599990000    10.9581080000    2.3841700000    L0
Au    5.8400000000    3.3717260000    2.3841700000    L0
Au    14.6000000000    3.3717260000    2.3841700000    L0
Au    10.2200000000    10.9581080000    2.3841700000    L0
Au    18.9800000000    10.9581080000    2.3841700000    L0
Au    8.7600000000    3.3717260000    2.3841700000    L0
Au    17.5200000000    3.3717260000    2.3841700000    L0
Au    13.1400000000    10.9581080000    2.3841700000    L0
Au    21.9000000000    10.9581080000    2.3841700000    L0
Au    4.3800000000    5.9005200000    2.3841700000    L0
Au    13.1400000000    5.9005200000    2.3841700000    L0
Au    7.3000000000    5.9005200000    2.3841700000    L0
Au    16.0599990000    5.9005200000    2.3841700000    L0
Au    10.2200000000    5.9005200000    2.3841700000    L0
Au    18.9800000000    5.9005200000    2.3841700000    L0
Au    0.0000000000    1.6858630000    4.7683400000    L0
Au    8.7600000000    1.6858630000    4.7683400000    L0
Au    4.3800000000    9.2722450000    4.7683400000    L0
Au    13.1400000000    9.2722450000    4.7683400000    L0
Au    2.9200000000    1.6858630000    4.7683400000    L0
Au    11.6800000000    1.6858630000    4.7683400000    L0
Au    7.3000000000    9.2722450000    4.7683400000    L0
Au    16.0599990000    9.2722450000    4.7683400000    L0
Au    5.8400000000    1.6858630000    4.7683400000    L0
Au    14.6000000000    1.6858630000    4.7683400000    L0
Au    10.2200000000    9.2722450000    4.7683400000    L0
Au    18.9800000000    9.2722450000    4.7683400000    L0
Au    1.4600000000    4.2146570000    4.7683400000    L0
Au    10.2200000000    4.2146570000    4.7683400000    L0
Au    5.8400000000    11.8010400000    4.7683400000    L0
Au    14.6000000000    11.8010400000    4.7683400000    L0
Au    4.3800000000    4.2146570000    4.7683400000    L0
Au    13.1400000000    4.2146570000    4.7683400000    L0
Au    8.7600000000    11.8010400000    4.7683400000    L0
Au    17.5200000000    11.8010400000    4.7683400000    L0
Au    7.3000000000    4.2146570000    4.7683400000    L0
Au    16.0599990000    4.2146570000    4.7683400000    L0
Au    11.6800000000    11.8010400000    4.7683400000    L0
Au    20.4400010000    11.8010400000    4.7683400000    L0
Au    2.9200000000    6.7434510000    4.7683400000    L0
Au    11.6800000000    6.7434510000    4.7683400000    L0
Au    5.8400000000    6.7434510000    4.7683400000    L0
Au    14.6000000000    6.7434510000    4.7683400000    L0
Au    8.7600000000    6.7434510000    4.7683400000    L0
Au    17.5200000000    6.7434510000    4.7683400000    L0
H    11.3299006126    4.9751175993    11.2253909408    S
C    10.9809320965    5.6766986935    10.4648340161    S
C    10.9944547133    7.0524297990    10.7317399524    S
C    10.5534959985    7.9321777277    9.7287668244    S
H    10.5637841772    9.0068988705    9.9167873195    S
C    10.0682986534    7.4531991832    8.5137497766    S
H    9.7034491179    8.1460358318    7.7544082021    S
C    10.0137655585    6.0682839577    8.2756551255    S
C    10.5061447370    5.1826351299    9.2505884724    S
H    10.4800840266    4.1082594868    9.0684624372    S
C    11.4684701730    7.5680520118    12.0734589619    S
N    10.5074910558    8.5099030025    12.6810823556    S
H    12.4111849750    8.1239446669    11.9470036129    S
H    11.6905516297    6.7087185341    12.7337300303    S
C    10.9564488592    9.2170486628    13.8612059382    S
C    9.1953956980    7.9851104574    12.9988711204    S
C    8.1112577502    8.9051207904    20.7250856705    S
C    7.7128186058    7.6709206376    21.3591147258    S
C    8.9149768282    7.0084664913    21.9029264583    S
C    10.0677013093    7.8364851292    21.4780102191    S
C    9.5598419248    9.0044595965    20.7916360632    S
C    10.2730382341    9.5551262366    19.7186720382    S
C    11.5189984500    8.9562427894    19.2855301263    S
C    12.0016490476    7.8168288663    19.9420124454    S
C    11.2535420123    7.2442874173    21.0474334963    S
C    11.3580067761    5.7932680384    20.9473901929    S
C    10.2664961458    4.9847862333    21.2777435398    S
C    9.0231792775    5.5859833987    21.7229099709    S
C    7.9280011798    4.8215040985    21.1662072203    S
C    6.7705081965    5.4721856919    20.7245163430    S
C    6.6626358537    6.9177357629    20.8192294855    S
C    5.9565023795    7.3908086575    19.6457212705    S
C    5.6274761622    6.2366106772    18.8241449357    S
C    6.1229135411    5.0474878739    19.4958817962    S
C    6.6619786598    3.9971781617    18.7471424218    S
C    7.8688841917    3.3237817671    19.2026007626    S
C    8.4895789640    3.7302769480    20.3865475571    S
C    9.9357483152    3.8343750327    20.4532604906    S
C    10.7087041367    3.5368538546    19.3273990499    S
C    11.8430587622    4.3776614306    18.9851541139    S
C    12.1692009023    5.4813804211    19.7869690445    S
C    12.5642221727    6.7297614645    19.1644537583    S
C    12.6176986785    6.8274161834    17.7692477382    S
C    12.1124720723    8.0069270416    17.0895857544    S
C    11.5880065333    9.0544258884    17.8387003727    S
C    10.3605754260    9.7062267253    17.3718637746    S
C    9.7613674843    9.3153145556    16.1832002215    S
C    10.4390637468    8.4134084111    15.1467496156    S
C    11.4899044285    7.5954234614    15.8375949323    S
C    11.5607157641    6.1980253204    15.7687309027    S
C    12.2704893177    5.6914774051    16.9481197052    S
C    11.8970338140    4.4904771722    17.5436443788    S
C    10.7907198324    3.7083205406    16.9887375554    S
C    10.0644273930    3.1184484571    18.0943905218    S
C    8.6686549714    3.0057362837    18.0334310492    S
C    7.9593811448    3.4760405820    16.8589468387    S
C    6.7193134916    4.0854075185    17.2987486718    S
C    6.2479418756    5.2361979202    16.6509177663    S
C    5.6945050043    6.3281575090    17.4314832224    S
C    6.1008389482    7.5764577703    16.8086481126    S
C    6.9025892853    7.2678973616    15.6467274125    S
C    6.9853887877    5.8066754902    15.5408309907    S
C    8.1825674111    5.2331728790    15.1258121723    S
C    8.6724677066    4.0411294541    15.7942660299    S
C    10.1090700622    4.1635371649    15.8653161131    S
C    10.4774570977    5.4331690296    15.2256013239    S
C    9.3207517954    6.0641102614    14.7542628987    S
C    9.2045493184    7.5432251210    14.5343519291    S
C    7.9858827759    8.0613456511    15.3007587855    S
C    8.3338028150    9.1759734433    16.1334294787    S
C    7.5382192099    9.5084568287    17.2550430434    S
C    6.3982903454    8.6927270878    17.5975510938    S
C    6.3268532567    8.5975589718    19.0435758866    S
C    7.4270794886    9.3697791900    19.5932710343    S
C    8.1669063989    9.9349652479    18.4824517003    S
C    9.5624965148    10.0131236753    18.5387705257    S
H    8.9183657689    7.1617723637    12.3306664199    S
H    8.4418522772    8.7810342294    12.8930174226    S
S    9.1246519457    5.3603813911    6.9113747990    S
H    10.4907117826    10.2146507220    13.8969028992    S
H    12.0455739883    9.3448459031    13.8669651296    S
Au    8.7768458809    6.7556041236    24.90293    R0
Au    0.0000000000    0.0000000000    27.211962257800003    R0
Au    8.7600000000    0.0000000000    27.211962257800003    R0
Au    4.3800000000    7.5863820000    27.211962257800003    R0
Au    13.1400000000    7.5863820000    27.211962257800003    R0
Au    2.9200000000    0.0000000000    27.211962257800003    R0
Au    11.6800000000    0.0000000000    27.211962257800003    R0
Au    7.3000000000    7.5863820000    27.211962257800003    R0
Au    16.0599990000    7.5863820000    27.211962257800003    R0
Au    5.8400000000    0.0000000000    27.211962257800003    R0
Au    14.6000000000    0.0000000000    27.211962257800003    R0
Au    10.2200000000    7.5863820000    27.211962257800003    R0
Au    18.9800000000    7.5863820000    27.211962257800003    R0
Au    1.4600000000    2.5287940000    27.211962257800003    R0
Au    10.2200000000    2.5287940000    27.211962257800003    R0
Au    5.8400000000    10.1151760000    27.211962257800003    R0
Au    14.6000000000    10.1151760000    27.211962257800003    R0
Au    4.3800000000    2.5287940000    27.211962257800003    R0
Au    13.1400000000    2.5287940000    27.211962257800003    R0
Au    8.7600000000    10.1151760000    27.211962257800003    R0
Au    17.5200000000    10.1151760000    27.211962257800003    R0
Au    7.3000000000    2.5287940000    27.211962257800003    R0
Au    16.0599990000    2.5287940000    27.211962257800003    R0
Au    11.6800000000    10.1151760000    27.211962257800003    R0
Au    20.4400010000    10.1151760000    27.211962257800003    R0
Au    2.9200000000    5.0575880000    27.211962257800003    R0
Au    11.6800000000    5.0575880000    27.211962257800003    R0
Au    5.8400000000    5.0575880000    27.211962257800003    R0
Au    14.6000000000    5.0575880000    27.211962257800003    R0
Au    8.7600000000    5.0575880000    27.211962257800003    R0
Au    17.5200000000    5.0575880000    27.211962257800003    R0
Au    1.4600000000    0.8429310000    29.5961322578    R0
Au    10.2200000000    0.8429310000    29.5961322578    R0
Au    5.8400000000    8.4293140000    29.5961322578    R0
Au    14.6000000000    8.4293140000    29.5961322578    R0
Au    4.3800000000    0.8429310000    29.5961322578    R0
Au    13.1400000000    0.8429310000    29.5961322578    R0
Au    8.7600000000    8.4293140000    29.5961322578    R0
Au    17.5200000000    8.4293140000    29.5961322578    R0
Au    7.3000000000    0.8429310000    29.5961322578    R0
Au    16.0599990000    0.8429310000    29.5961322578    R0
Au    11.6800000000    8.4293140000    29.5961322578    R0
Au    20.4400010000    8.4293140000    29.5961322578    R0
Au    2.9200000000    3.3717260000    29.5961322578    R0
Au    11.6800000000    3.3717260000    29.5961322578    R0
Au    7.3000000000    10.9581080000    29.5961322578    R0
Au    16.0599990000    10.9581080000    29.5961322578    R0
Au    5.8400000000    3.3717260000    29.5961322578    R0
Au    14.6000000000    3.3717260000    29.5961322578    R0
Au    10.2200000000    10.9581080000    29.5961322578    R0
Au    18.9800000000    10.9581080000    29.5961322578    R0
Au    8.7600000000    3.3717260000    29.5961322578    R0
Au    17.5200000000    3.3717260000    29.5961322578    R0
Au    13.1400000000    10.9581080000    29.5961322578    R0
Au    21.9000000000    10.9581080000    29.5961322578    R0
Au    4.3800000000    5.9005200000    29.5961322578    R0
Au    13.1400000000    5.9005200000    29.5961322578    R0
Au    7.3000000000    5.9005200000    29.5961322578    R0
Au    16.0599990000    5.9005200000    29.5961322578    R0
Au    10.2200000000    5.9005200000    29.5961322578    R0
Au    18.9800000000    5.9005200000    29.5961322578    R0
Au    0.0000000000    1.6858630000    31.980302257800002    R0
Au    8.7600000000    1.6858630000    31.980302257800002    R0
Au    4.3800000000    9.2722450000    31.980302257800002    R0
Au    13.1400000000    9.2722450000    31.980302257800002    R0
Au    2.9200000000    1.6858630000    31.980302257800002    R0
Au    11.6800000000    1.6858630000    31.980302257800002    R0
Au    7.3000000000    9.2722450000    31.980302257800002    R0
Au    16.0599990000    9.2722450000    31.980302257800002    R0
Au    5.8400000000    1.6858630000    31.980302257800002    R0
Au    14.6000000000    1.6858630000    31.980302257800002    R0
Au    10.2200000000    9.2722450000    31.980302257800002    R0
Au    18.9800000000    9.2722450000    31.980302257800002    R0
Au    1.4600000000    4.2146570000    31.980302257800002    R0
Au    10.2200000000    4.2146570000    31.980302257800002    R0
Au    5.8400000000    11.8010400000    31.980302257800002    R0
Au    14.6000000000    11.8010400000    31.980302257800002    R0
Au    4.3800000000    4.2146570000    31.980302257800002    R0
Au    13.1400000000    4.2146570000    31.980302257800002    R0
Au    8.7600000000    11.8010400000    31.980302257800002    R0
Au    17.5200000000    11.8010400000    31.980302257800002    R0
Au    7.3000000000    4.2146570000    31.980302257800002    R0
Au    16.0599990000    4.2146570000    31.980302257800002    R0
Au    11.6800000000    11.8010400000    31.980302257800002    R0
Au    20.4400010000    11.8010400000    31.980302257800002    R0
Au    2.9200000000    6.7434510000    31.980302257800002    R0
Au    11.6800000000    6.7434510000    31.980302257800002    R0
Au    5.8400000000    6.7434510000    31.980302257800002    R0
Au    14.6000000000    6.7434510000    31.980302257800002    R0
Au    8.7600000000    6.7434510000    31.980302257800002    R0
Au    17.5200000000    6.7434510000    31.980302257800002    R0
Au    0.000000    0.000000    56.8219922578    R1
Au    8.760000    0.000000    56.8219922578    R1
Au    4.380000    7.586382    56.8219922578    R1
Au    13.140000    7.586382    56.8219922578    R1
Au    2.920000    0.000000    56.8219922578    R1
Au    11.680000    0.000000    56.8219922578    R1
Au    7.300000    7.586382    56.8219922578    R1
Au    16.059999    7.586382    56.8219922578    R1
Au    5.840000    0.000000    56.8219922578    R1
Au    14.600000    0.000000    56.8219922578    R1
Au    10.220000    7.586382    56.8219922578    R1
Au    18.980000    7.586382    56.8219922578    R1
Au    1.460000    2.528794    56.8219922578    R1
Au    10.220000    2.528794    56.8219922578    R1
Au    5.840000    10.115176    56.8219922578    R1
Au    14.600000    10.115176    56.8219922578    R1
Au    4.380000    2.528794    56.8219922578    R1
Au    13.140000    2.528794    56.8219922578    R1
Au    8.760000    10.115176    56.8219922578    R1
Au    17.520000    10.115176    56.8219922578    R1
Au    7.300000    2.528794    56.8219922578    R1
Au    16.059999    2.528794    56.8219922578    R1
Au    11.680000    10.115176    56.8219922578    R1
Au    20.440001    10.115176    56.8219922578    R1
Au    2.920000    5.057588    56.8219922578    R1
Au    11.680000    5.057588    56.8219922578    R1
Au    5.840000    5.057588    56.8219922578    R1
Au    14.600000    5.057588    56.8219922578    R1
Au    8.760000    5.057588    56.8219922578    R1
Au    17.520000    5.057588    56.8219922578    R1
Au    1.460000    0.842931    59.2061622578    R1
Au    10.220000    0.842931    59.2061622578    R1
Au    5.840000    8.429314    59.2061622578    R1
Au    14.600000    8.429314    59.2061622578    R1
Au    4.380000    0.842931    59.2061622578    R1
Au    13.140000    0.842931    59.2061622578    R1
Au    8.760000    8.429314    59.2061622578    R1
Au    17.520000    8.429314    59.2061622578    R1
Au    7.300000    0.842931    59.2061622578    R1
Au    16.059999    0.842931    59.2061622578    R1
Au    11.680000    8.429314    59.2061622578    R1
Au    20.440001    8.429314    59.2061622578    R1
Au    2.920000    3.371726    59.2061622578    R1
Au    11.680000    3.371726    59.2061622578    R1
Au    7.300000    10.958108    59.2061622578    R1
Au    16.059999    10.958108    59.2061622578    R1
Au    5.840000    3.371726    59.2061622578    R1
Au    14.600000    3.371726    59.2061622578    R1
Au    10.220000    10.958108    59.2061622578    R1
Au    18.980000    10.958108    59.2061622578    R1
Au    8.760000    3.371726    59.2061622578    R1
Au    17.520000    3.371726    59.2061622578    R1
Au    13.140000    10.958108    59.2061622578    R1
Au    21.900000    10.958108    59.2061622578    R1
Au    4.380000    5.900520    59.2061622578    R1
Au    13.140000    5.900520    59.2061622578    R1
Au    7.300000    5.900520    59.2061622578    R1
Au    16.059999    5.900520    59.2061622578    R1
Au    10.220000    5.900520    59.2061622578    R1
Au    18.980000    5.900520    59.2061622578    R1
Au    0.000000    1.685863    61.5903322578    R1
Au    8.760000    1.685863    61.5903322578    R1
Au    4.380000    9.272245    61.5903322578    R1
Au    13.140000    9.272245    61.5903322578    R1
Au    2.920000    1.685863    61.5903322578    R1
Au    11.680000    1.685863    61.5903322578    R1
Au    7.300000    9.272245    61.5903322578    R1
Au    16.059999    9.272245    61.5903322578    R1
Au    5.840000    1.685863    61.5903322578    R1
Au    14.600000    1.685863    61.5903322578    R1
Au    10.220000    9.272245    61.5903322578    R1
Au    18.980000    9.272245    61.5903322578    R1
Au    1.460000    4.214657    61.5903322578    R1
Au    10.220000    4.214657    61.5903322578    R1
Au    5.840000    11.801040    61.5903322578    R1
Au    14.600000    11.801040    61.5903322578    R1
Au    4.380000    4.214657    61.5903322578    R1
Au    13.140000    4.214657    61.5903322578    R1
Au    8.760000    11.801040    61.5903322578    R1
Au    17.520000    11.801040    61.5903322578    R1
Au    7.300000    4.214657    61.5903322578    R1
Au    16.059999    4.214657    61.5903322578    R1
Au    11.680000    11.801040    61.5903322578    R1
Au    20.440001    11.801040    61.5903322578    R1
Au    2.920000    6.743451    61.5903322578    R1
Au    11.680000    6.743451    61.5903322578    R1
Au    5.840000    6.743451    61.5903322578    R1
Au    14.600000    6.743451    61.5903322578    R1
Au    8.760000    6.743451    61.5903322578    R1
Au    17.520000    6.743451    61.5903322578    R1
Au    0.000000    0.000000    63.9745012578    R2
Au    8.760000    0.000000    63.9745012578    R2
Au    4.380000    7.586382    63.9745012578    R2
Au    13.140000    7.586382    63.9745012578    R2
Au    2.920000    0.000000    63.9745012578    R2
Au    11.680000    0.000000    63.9745012578    R2
Au    7.300000    7.586382    63.9745012578    R2
Au    16.059999    7.586382    63.9745012578    R2
Au    5.840000    0.000000    63.9745012578    R2
Au    14.600000    0.000000    63.9745012578    R2
Au    10.220000    7.586382    63.9745012578    R2
Au    18.980000    7.586382    63.9745012578    R2
Au    1.460000    2.528794    63.9745012578    R2
Au    10.220000    2.528794    63.9745012578    R2
Au    5.840000    10.115176    63.9745012578    R2
Au    14.600000    10.115176    63.9745012578    R2
Au    4.380000    2.528794    63.9745012578    R2
Au    13.140000    2.528794    63.9745012578    R2
Au    8.760000    10.115176    63.9745012578    R2
Au    17.520000    10.115176    63.9745012578    R2
Au    7.300000    2.528794    63.9745012578    R2
Au    16.059999    2.528794    63.9745012578    R2
Au    11.680000    10.115176    63.9745012578    R2
Au    20.440001    10.115176    63.9745012578    R2
Au    2.920000    5.057588    63.9745012578    R2
Au    11.680000    5.057588    63.9745012578    R2
Au    5.840000    5.057588    63.9745012578    R2
Au    14.600000    5.057588    63.9745012578    R2
Au    8.760000    5.057588    63.9745012578    R2
Au    17.520000    5.057588    63.9745012578    R2
Au    1.460000    0.842931    66.3586722578    R2
Au    10.220000    0.842931    66.3586722578    R2
Au    5.840000    8.429314    66.3586722578    R2
Au    14.600000    8.429314    66.3586722578    R2
Au    4.380000    0.842931    66.3586722578    R2
Au    13.140000    0.842931    66.3586722578    R2
Au    8.760000    8.429314    66.3586722578    R2
Au    17.520000    8.429314    66.3586722578    R2
Au    7.300000    0.842931    66.3586722578    R2
Au    16.059999    0.842931    66.3586722578    R2
Au    11.680000    8.429314    66.3586722578    R2
Au    20.440001    8.429314    66.3586722578    R2
Au    2.920000    3.371726    66.3586722578    R2
Au    11.680000    3.371726    66.3586722578    R2
Au    7.300000    10.958108    66.3586722578    R2
Au    16.059999    10.958108    66.3586722578    R2
Au    5.840000    3.371726    66.3586722578    R2
Au    14.600000    3.371726    66.3586722578    R2
Au    10.220000    10.958108    66.3586722578    R2
Au    18.980000    10.958108    66.3586722578    R2
Au    8.760000    3.371726    66.3586722578    R2
Au    17.520000    3.371726    66.3586722578    R2
Au    13.140000    10.958108    66.3586722578    R2
Au    21.900000    10.958108    66.3586722578    R2
Au    4.380000    5.900520    66.3586722578    R2
Au    13.140000    5.900520    66.3586722578    R2
Au    7.300000    5.900520    66.3586722578    R2
Au    16.059999    5.900520    66.3586722578    R2
Au    10.220000    5.900520    66.3586722578    R2
Au    18.980000    5.900520    66.3586722578    R2
Au    0.000000    1.685863    68.7428422578    R2
Au    8.760000    1.685863    68.7428422578    R2
Au    4.380000    9.272245    68.7428422578    R2
Au    13.140000    9.272245    68.7428422578    R2
Au    2.920000    1.685863    68.7428422578    R2
Au    11.680000    1.685863    68.7428422578    R2
Au    7.300000    9.272245    68.7428422578    R2
Au    16.059999    9.272245    68.7428422578    R2
Au    5.840000    1.685863    68.7428422578    R2
Au    14.600000    1.685863    68.7428422578    R2
Au    10.220000    9.272245    68.7428422578    R2
Au    18.980000    9.272245    68.7428422578    R2
Au    1.460000    4.214657    68.7428422578    R2
Au    10.220000    4.214657    68.7428422578    R2
Au    5.840000    11.801040    68.7428422578    R2
Au    14.600000    11.801040    68.7428422578    R2
Au    4.380000    4.214657    68.7428422578    R2
Au    13.140000    4.214657    68.7428422578    R2
Au    8.760000    11.801040    68.7428422578    R2
Au    17.520000    11.801040    68.7428422578    R2
Au    7.300000    4.214657    68.7428422578    R2
Au    16.059999    4.214657    68.7428422578    R2
Au    11.680000    11.801040    68.7428422578    R2
Au    20.440001    11.801040    68.7428422578    R2
Au    2.920000    6.743451    68.7428422578    R2
Au    11.680000    6.743451    68.7428422578    R2
Au    5.840000    6.743451    68.7428422578    R2
Au    14.600000    6.743451    68.7428422578    R2
Au    8.760000    6.743451    68.7428422578    R2
Au    17.520000    6.743451    68.7428422578    R2
Au    0.000000    0.000000    71.12701125779999    R3
Au    8.760000    0.000000    71.12701125779999    R3
Au    4.380000    7.586382    71.12701125779999    R3
Au    13.140000    7.586382    71.12701125779999    R3
Au    2.920000    0.000000    71.12701125779999    R3
Au    11.680000    0.000000    71.12701125779999    R3
Au    7.300000    7.586382    71.12701125779999    R3
Au    16.059999    7.586382    71.12701125779999    R3
Au    5.840000    0.000000    71.12701125779999    R3
Au    14.600000    0.000000    71.12701125779999    R3
Au    10.220000    7.586382    71.12701125779999    R3
Au    18.980000    7.586382    71.12701125779999    R3
Au    1.460000    2.528794    71.12701125779999    R3
Au    10.220000    2.528794    71.12701125779999    R3
Au    5.840000    10.115176    71.12701125779999    R3
Au    14.600000    10.115176    71.12701125779999    R3
Au    4.380000    2.528794    71.12701125779999    R3
Au    13.140000    2.528794    71.12701125779999    R3
Au    8.760000    10.115176    71.12701125779999    R3
Au    17.520000    10.115176    71.12701125779999    R3
Au    7.300000    2.528794    71.12701125779999    R3
Au    16.059999    2.528794    71.12701125779999    R3
Au    11.680000    10.115176    71.12701125779999    R3
Au    20.440001    10.115176    71.12701125779999    R3
Au    2.920000    5.057588    71.12701125779999    R3
Au    11.680000    5.057588    71.12701125779999    R3
Au    5.840000    5.057588    71.12701125779999    R3
Au    14.600000    5.057588    71.12701125779999    R3
Au    8.760000    5.057588    71.12701125779999    R3
Au    17.520000    5.057588    71.12701125779999    R3
Au    1.460000    0.842931    73.5111822578    R3
Au    10.220000    0.842931    73.5111822578    R3
Au    5.840000    8.429314    73.5111822578    R3
Au    14.600000    8.429314    73.5111822578    R3
Au    4.380000    0.842931    73.5111822578    R3
Au    13.140000    0.842931    73.5111822578    R3
Au    8.760000    8.429314    73.5111822578    R3
Au    17.520000    8.429314    73.5111822578    R3
Au    7.300000    0.842931    73.5111822578    R3
Au    16.059999    0.842931    73.5111822578    R3
Au    11.680000    8.429314    73.5111822578    R3
Au    20.440001    8.429314    73.5111822578    R3
Au    2.920000    3.371726    73.5111822578    R3
Au    11.680000    3.371726    73.5111822578    R3
Au    7.300000    10.958108    73.5111822578    R3
Au    16.059999    10.958108    73.5111822578    R3
Au    5.840000    3.371726    73.5111822578    R3
Au    14.600000    3.371726    73.5111822578    R3
Au    10.220000    10.958108    73.5111822578    R3
Au    18.980000    10.958108    73.5111822578    R3
Au    8.760000    3.371726    73.5111822578    R3
Au    17.520000    3.371726    73.5111822578    R3
Au    13.140000    10.958108    73.5111822578    R3
Au    21.900000    10.958108    73.5111822578    R3
Au    4.380000    5.900520    73.5111822578    R3
Au    13.140000    5.900520    73.5111822578    R3
Au    7.300000    5.900520    73.5111822578    R3
Au    16.059999    5.900520    73.5111822578    R3
Au    10.220000    5.900520    73.5111822578    R3
Au    18.980000    5.900520    73.5111822578    R3
Au    0.000000    1.685863    75.8953522578    R3
Au    8.760000    1.685863    75.8953522578    R3
Au    4.380000    9.272245    75.8953522578    R3
Au    13.140000    9.272245    75.8953522578    R3
Au    2.920000    1.685863    75.8953522578    R3
Au    11.680000    1.685863    75.8953522578    R3
Au    7.300000    9.272245    75.8953522578    R3
Au    16.059999    9.272245    75.8953522578    R3
Au    5.840000    1.685863    75.8953522578    R3
Au    14.600000    1.685863    75.8953522578    R3
Au    10.220000    9.272245    75.8953522578    R3
Au    18.980000    9.272245    75.8953522578    R3
Au    1.460000    4.214657    75.8953522578    R3
Au    10.220000    4.214657    75.8953522578    R3
Au    5.840000    11.801040    75.8953522578    R3
Au    14.600000    11.801040    75.8953522578    R3
Au    4.380000    4.214657    75.8953522578    R3
Au    13.140000    4.214657    75.8953522578    R3
Au    8.760000    11.801040    75.8953522578    R3
Au    17.520000    11.801040    75.8953522578    R3
Au    7.300000    4.214657    75.8953522578    R3
Au    16.059999    4.214657    75.8953522578    R3
Au    11.680000    11.801040    75.8953522578    R3
Au    20.440001    11.801040    75.8953522578    R3
Au    2.920000    6.743451    75.8953522578    R3
Au    11.680000    6.743451    75.8953522578    R3
Au    5.840000    6.743451    75.8953522578    R3
Au    14.600000    6.743451    75.8953522578    R3
Au    8.760000    6.743451    75.8953522578    R3
Au    17.520000    6.743451    75.8953522578    R3