75
	Energy:    1078.1971223
H         11.32990        4.97512       11.22539
C         10.98093        5.67670       10.46483
C         10.99445        7.05243       10.73174
C         10.55350        7.93218        9.72877
H         10.56378        9.00690        9.91679
C         10.06830        7.45320        8.51375
H          9.70345        8.14604        7.75441
C         10.01377        6.06828        8.27566
C         10.50614        5.18264        9.25059
H         10.48008        4.10826        9.06846
C         11.46847        7.56805       12.07346
N         10.50749        8.50990       12.68108
H         12.41118        8.12394       11.94700
H         11.69055        6.70872       12.73373
C          8.11126        8.90512       20.72509
C          7.71282        7.67092       21.35911
C          8.91498        7.00847       21.90293
C         10.06770        7.83649       21.47801
C          9.55984        9.00446       20.79164
C         10.27304        9.55513       19.71867
C         11.51900        8.95624       19.28553
C         12.00165        7.81683       19.94201
C         11.25354        7.24429       21.04743
C         11.35801        5.79327       20.94739
C         10.26650        4.98479       21.27774
C          9.02318        5.58598       21.72291
C          7.92800        4.82150       21.16621
C          6.77051        5.47219       20.72452
C          6.66264        6.91774       20.81923
C          5.95650        7.39081       19.64572
C          5.62748        6.23661       18.82414
C          6.12291        5.04749       19.49588
C          6.66198        3.99718       18.74714
C          7.86888        3.32378       19.20260
C          8.48958        3.73028       20.38655
C          9.93575        3.83438       20.45326
C         10.70870        3.53685       19.32740
C         11.84306        4.37766       18.98515
C         12.16920        5.48138       19.78697
C         12.56422        6.72976       19.16445
C         12.61770        6.82742       17.76925
C         12.11247        8.00693       17.08959
C         11.58801        9.05443       17.83870
C         10.36058        9.70623       17.37186
C          9.76137        9.31531       16.18320
C         10.43906        8.41341       15.14675
C         11.48990        7.59542       15.83759
C         11.56072        6.19803       15.76873
C         12.27049        5.69148       16.94812
C         11.89703        4.49048       17.54364
C         10.79072        3.70832       16.98874
C         10.06443        3.11845       18.09439
C          8.66865        3.00574       18.03343
C          7.95938        3.47604       16.85895
C          6.71931        4.08541       17.29875
C          6.24794        5.23620       16.65092
C          5.69451        6.32816       17.43148
C          6.10084        7.57646       16.80865
C          6.90259        7.26790       15.64673
C          6.98539        5.80668       15.54083
C          8.18257        5.23317       15.12581
C          8.67247        4.04113       15.79427
C         10.10907        4.16354       15.86532
C         10.49680        5.44723       15.23149
C          9.32075        6.06411       14.75426
C          9.20455        7.54323       14.53435
C          7.98588        8.06135       15.30076
C          8.33380        9.17597       16.13343
C          7.53822        9.50846       17.25504
C          6.39829        8.69273       17.59755
C          6.32685        8.59756       19.04358
C          7.42708        9.36978       19.59327
C          8.16691        9.93497       18.48245
C          9.56250       10.01312       18.53877
S          9.12465        5.36038        6.91137
