     262
 i =      126, E =     -6434.1863547430
 Au         0.0000000000        0.0000000000        0.0000000000
 Au         8.7600000000        0.0000000000        0.0000000000
 Au         4.3800000000        7.5863820000        0.0000000000
 Au        13.1400000000        7.5863820000        0.0000000000
 Au         2.9200000000        0.0000000000        0.0000000000
 Au        11.6800000000        0.0000000000        0.0000000000
 Au         7.3000000000        7.5863820000        0.0000000000
 Au        16.0599990000        7.5863820000        0.0000000000
 Au         5.8400000000        0.0000000000        0.0000000000
 Au        14.6000000000        0.0000000000        0.0000000000
 Au        10.2200000000        7.5863820000        0.0000000000
 Au        18.9800000000        7.5863820000        0.0000000000
 Au         1.4600000000        2.5287940000        0.0000000000
 Au        10.2200000000        2.5287940000        0.0000000000
 Au         5.8400000000       10.1151760000        0.0000000000
 Au        14.6000000000       10.1151760000        0.0000000000
 Au         4.3800000000        2.5287940000        0.0000000000
 Au        13.1400000000        2.5287940000        0.0000000000
 Au         8.7600000000       10.1151760000        0.0000000000
 Au        17.5200000000       10.1151760000        0.0000000000
 Au         7.3000000000        2.5287940000        0.0000000000
 Au        16.0599990000        2.5287940000        0.0000000000
 Au        11.6800000000       10.1151760000        0.0000000000
 Au        20.4400010000       10.1151760000        0.0000000000
 Au         2.9200000000        5.0575880000        0.0000000000
 Au        11.6800000000        5.0575880000        0.0000000000
 Au         5.8400000000        5.0575880000        0.0000000000
 Au        14.6000000000        5.0575880000        0.0000000000
 Au         8.7600000000        5.0575880000        0.0000000000
 Au        17.5200000000        5.0575880000        0.0000000000
 Au         1.4600000000        0.8429310000        2.3841700000
 Au        10.2200000000        0.8429310000        2.3841700000
 Au         5.8400000000        8.4293140000        2.3841700000
 Au        14.6000000000        8.4293140000        2.3841700000
 Au         4.3800000000        0.8429310000        2.3841700000
 Au        13.1400000000        0.8429310000        2.3841700000
 Au         8.7600000000        8.4293140000        2.3841700000
 Au        17.5200000000        8.4293140000        2.3841700000
 Au         7.3000000000        0.8429310000        2.3841700000
 Au        16.0599990000        0.8429310000        2.3841700000
 Au        11.6800000000        8.4293140000        2.3841700000
 Au        20.4400010000        8.4293140000        2.3841700000
 Au         2.9200000000        3.3717260000        2.3841700000
 Au        11.6800000000        3.3717260000        2.3841700000
 Au         7.3000000000       10.9581080000        2.3841700000
 Au        16.0599990000       10.9581080000        2.3841700000
 Au         5.8400000000        3.3717260000        2.3841700000
 Au        14.6000000000        3.3717260000        2.3841700000
 Au        10.2200000000       10.9581080000        2.3841700000
 Au        18.9800000000       10.9581080000        2.3841700000
 Au         8.7600000000        3.3717260000        2.3841700000
 Au        17.5200000000        3.3717260000        2.3841700000
 Au        13.1400000000       10.9581080000        2.3841700000
 Au        21.9000000000       10.9581080000        2.3841700000
 Au         4.3800000000        5.9005200000        2.3841700000
 Au        13.1400000000        5.9005200000        2.3841700000
 Au         7.3000000000        5.9005200000        2.3841700000
 Au        16.0599990000        5.9005200000        2.3841700000
 Au        10.2200000000        5.9005200000        2.3841700000
 Au        18.9800000000        5.9005200000        2.3841700000
 Au         0.0000000000        1.6858630000        4.7683400000
 Au         8.7600000000        1.6858630000        4.7683400000
 Au         4.3800000000        9.2722450000        4.7683400000
 Au        13.1400000000        9.2722450000        4.7683400000
 Au         2.9200000000        1.6858630000        4.7683400000
 Au        11.6800000000        1.6858630000        4.7683400000
 Au         7.3000000000        9.2722450000        4.7683400000
 Au        16.0599990000        9.2722450000        4.7683400000
 Au         5.8400000000        1.6858630000        4.7683400000
 Au        14.6000000000        1.6858630000        4.7683400000
 Au        10.2200000000        9.2722450000        4.7683400000
 Au        18.9800000000        9.2722450000        4.7683400000
 Au         1.4600000000        4.2146570000        4.7683400000
 Au        10.2200000000        4.2146570000        4.7683400000
 Au         5.8400000000       11.8010400000        4.7683400000
 Au        14.6000000000       11.8010400000        4.7683400000
 Au         4.3800000000        4.2146570000        4.7683400000
 Au        13.1400000000        4.2146570000        4.7683400000
 Au         8.7600000000       11.8010400000        4.7683400000
 Au        17.5200000000       11.8010400000        4.7683400000
 Au         7.3000000000        4.2146570000        4.7683400000
 Au        16.0599990000        4.2146570000        4.7683400000
 Au        11.6800000000       11.8010400000        4.7683400000
 Au        20.4400010000       11.8010400000        4.7683400000
 Au         2.9200000000        6.7434510000        4.7683400000
 Au        11.6800000000        6.7434510000        4.7683400000
 Au         5.8400000000        6.7434510000        4.7683400000
 Au        14.6000000000        6.7434510000        4.7683400000
 Au         8.7600000000        6.7434510000        4.7683400000
 Au        17.5200000000        6.7434510000        4.7683400000
  H        10.9818744204        4.4260845539       11.3199197439
  C        10.5997513510        5.2056276176       10.6569334183
  C        10.4341630465        6.5107753108       11.1434804245
  C         9.9493797805        7.4902730348       10.2606704326
  H         9.8160294637        8.5121539265       10.6191399068
  C         9.6112207957        7.1744036360        8.9444379835
  H         9.2182682054        7.9433790434        8.2787111823
  C         9.7478411938        5.8538331893        8.4778215843
  C        10.2724335437        4.8750773825        9.3423884216
  H        10.3898564667        3.8502168552        8.9903082920
  C        10.8293503998        6.8433561421       12.5733725309
  N         9.9021333251        7.7731912544       13.2365894030
  H        11.8167363272        7.3316970989       12.5655755994
  H        10.9496847860        5.8996076367       13.1396328672
  C        10.4048061279        8.5748927411       14.3299879251
  C         8.6252481318        7.2364955608       13.6589986981
  C         7.8762408644        8.8491228778       21.3211413865
  C         7.5363188360        7.6712700922       22.0854045856
  C         8.7764781046        7.0833934295       22.6186088859
  C         9.8885599119        7.8904544843       22.0759639341
  C         9.3238191976        8.9810811337       21.3089461655
  C         9.9737211075        9.4414757324       20.1564865830
  C        11.2116472990        8.8277872627       19.7208022232
  C        11.7499248261        7.7635817410       20.4557222199
  C        11.0662080495        7.2821004623       21.6434413456
  C        11.1996161613        5.8301595862       21.6729586296
  C        10.1455464685        5.0353742088       22.1298172110
  C         8.9087803221        5.6513411073       22.5913413097
  C         7.8046215845        4.8184506787       22.1461781686
  C         6.6161189755        5.4048229722       21.7005444991
  C         6.4805606221        6.8513896228       21.6663795450
  C         5.7107853634        7.2002948842       20.4891094738
  C         5.3710896810        5.9693545600       19.7931543164
  C         5.9235068513        4.8570803491       20.5468450492
  C         6.4504760423        3.7521553690       19.8725069600
  C         7.6916252670        3.1476935796       20.3294178046
  C         8.3561584121        3.6745602602       21.4408334391
  C         9.8012521198        3.8114912271       21.4281505301
  C        10.5281566722        3.4244127793       20.2978271072
  C        11.6260932531        4.2493739019       19.8260754531
  C        11.9627433830        5.4278674508       20.5070459580
  C        12.3002349643        6.6200765746       19.7544817546
  C        12.2877641225        6.5887691338       18.3549647791
  C        11.7243646568        7.6904381921       17.5951317258
  C        11.2121706450        8.7933168292       18.2695472466
  C         9.9502581224        9.3757912040       17.8033910528
  C         9.3065875426        8.8654913702       16.6847450559
  C         9.9569285092        7.8843607615       15.7032368729
  C        11.0556115397        7.1537348936       16.4166898860
  C        11.1565006482        5.7578935760       16.4707586802
  C        11.9305714456        5.3757289860       17.6580752870
  C        11.6117760203        4.2291635316       18.3786683060
  C        10.4988335447        3.3794507821       17.9514364717
  C         9.8378214711        2.8818870147       19.1405920222
  C         8.4440793800        2.7378399686       19.1572030527
  C         7.6714653273        3.0834494777       17.9794922169
  C         6.4392395896        3.7070631614       18.4202766465
  C         5.9128600542        4.7835833338       17.6928606242
  C         5.3720425184        5.9326583001       18.3961203726
  C         5.7208452629        7.1248580897       17.6423253425
  C         6.4743677044        6.7253320634       16.4756224129
  C         6.5850672772        5.2623751353       16.5004961661
  C         7.7745145653        4.6754529801       16.0822870366
  C         8.3217073390        3.5605080959       16.8340262686
  C         9.7566002087        3.7153489197       16.8242672911
  C        10.0665375941        4.9265435030       16.0521294637
  C         8.8753253828        5.4889886292       15.5792461947
  C         8.7154749949        6.9398228598       15.2288876000
  C         7.5214449730        7.5037101818       16.0047285314
  C         7.8821771490        8.6955823675       16.7165860808
  C         7.1318256187        9.1159615665       17.8404775676
  C         6.0282898180        8.3145212428       18.3107327294
  C         6.0256675417        8.3523218299       19.7613212043
  C         7.1313190549        9.1930101763       20.1848553976
  C         7.8059297733        9.6661672279       18.9920362217
  C         9.2000693747        9.7750789918       18.9740605920
  H         8.3578343537        6.3426073097       13.0827141728
  H         7.8307022822        7.9854731710       13.5146037529
  S         9.0521009092        5.3131138337        6.9314171644
  H         9.9402699944        9.5740613745       14.3095335061
  H        11.4923935361        8.7020038011       14.2702224238
 Au         8.7768458809        6.7556041236       24.9029300000
 Au         0.0000000000        0.0000000000       27.2119622578
 Au         8.7600000000        0.0000000000       27.2119622578
 Au         4.3800000000        7.5863820000       27.2119622578
 Au        13.1400000000        7.5863820000       27.2119622578
 Au         2.9200000000        0.0000000000       27.2119622578
 Au        11.6800000000        0.0000000000       27.2119622578
 Au         7.3000000000        7.5863820000       27.2119622578
 Au        16.0599990000        7.5863820000       27.2119622578
 Au         5.8400000000        0.0000000000       27.2119622578
 Au        14.6000000000        0.0000000000       27.2119622578
 Au        10.2200000000        7.5863820000       27.2119622578
 Au        18.9800000000        7.5863820000       27.2119622578
 Au         1.4600000000        2.5287940000       27.2119622578
 Au        10.2200000000        2.5287940000       27.2119622578
 Au         5.8400000000       10.1151760000       27.2119622578
 Au        14.6000000000       10.1151760000       27.2119622578
 Au         4.3800000000        2.5287940000       27.2119622578
 Au        13.1400000000        2.5287940000       27.2119622578
 Au         8.7600000000       10.1151760000       27.2119622578
 Au        17.5200000000       10.1151760000       27.2119622578
 Au         7.3000000000        2.5287940000       27.2119622578
 Au        16.0599990000        2.5287940000       27.2119622578
 Au        11.6800000000       10.1151760000       27.2119622578
 Au        20.4400010000       10.1151760000       27.2119622578
 Au         2.9200000000        5.0575880000       27.2119622578
 Au        11.6800000000        5.0575880000       27.2119622578
 Au         5.8400000000        5.0575880000       27.2119622578
 Au        14.6000000000        5.0575880000       27.2119622578
 Au         8.7600000000        5.0575880000       27.2119622578
 Au        17.5200000000        5.0575880000       27.2119622578
 Au         1.4600000000        0.8429310000       29.5961322578
 Au        10.2200000000        0.8429310000       29.5961322578
 Au         5.8400000000        8.4293140000       29.5961322578
 Au        14.6000000000        8.4293140000       29.5961322578
 Au         4.3800000000        0.8429310000       29.5961322578
 Au        13.1400000000        0.8429310000       29.5961322578
 Au         8.7600000000        8.4293140000       29.5961322578
 Au        17.5200000000        8.4293140000       29.5961322578
 Au         7.3000000000        0.8429310000       29.5961322578
 Au        16.0599990000        0.8429310000       29.5961322578
 Au        11.6800000000        8.4293140000       29.5961322578
 Au        20.4400010000        8.4293140000       29.5961322578
 Au         2.9200000000        3.3717260000       29.5961322578
 Au        11.6800000000        3.3717260000       29.5961322578
 Au         7.3000000000       10.9581080000       29.5961322578
 Au        16.0599990000       10.9581080000       29.5961322578
 Au         5.8400000000        3.3717260000       29.5961322578
 Au        14.6000000000        3.3717260000       29.5961322578
 Au        10.2200000000       10.9581080000       29.5961322578
 Au        18.9800000000       10.9581080000       29.5961322578
 Au         8.7600000000        3.3717260000       29.5961322578
 Au        17.5200000000        3.3717260000       29.5961322578
 Au        13.1400000000       10.9581080000       29.5961322578
 Au        21.9000000000       10.9581080000       29.5961322578
 Au         4.3800000000        5.9005200000       29.5961322578
 Au        13.1400000000        5.9005200000       29.5961322578
 Au         7.3000000000        5.9005200000       29.5961322578
 Au        16.0599990000        5.9005200000       29.5961322578
 Au        10.2200000000        5.9005200000       29.5961322578
 Au        18.9800000000        5.9005200000       29.5961322578
 Au         0.0000000000        1.6858630000       31.9803022578
 Au         8.7600000000        1.6858630000       31.9803022578
 Au         4.3800000000        9.2722450000       31.9803022578
 Au        13.1400000000        9.2722450000       31.9803022578
 Au         2.9200000000        1.6858630000       31.9803022578
 Au        11.6800000000        1.6858630000       31.9803022578
 Au         7.3000000000        9.2722450000       31.9803022578
 Au        16.0599990000        9.2722450000       31.9803022578
 Au         5.8400000000        1.6858630000       31.9803022578
 Au        14.6000000000        1.6858630000       31.9803022578
 Au        10.2200000000        9.2722450000       31.9803022578
 Au        18.9800000000        9.2722450000       31.9803022578
 Au         1.4600000000        4.2146570000       31.9803022578
 Au        10.2200000000        4.2146570000       31.9803022578
 Au         5.8400000000       11.8010400000       31.9803022578
 Au        14.6000000000       11.8010400000       31.9803022578
 Au         4.3800000000        4.2146570000       31.9803022578
 Au        13.1400000000        4.2146570000       31.9803022578
 Au         8.7600000000       11.8010400000       31.9803022578
 Au        17.5200000000       11.8010400000       31.9803022578
 Au         7.3000000000        4.2146570000       31.9803022578
 Au        16.0599990000        4.2146570000       31.9803022578
 Au        11.6800000000       11.8010400000       31.9803022578
 Au        20.4400010000       11.8010400000       31.9803022578
 Au         2.9200000000        6.7434510000       31.9803022578
 Au        11.6800000000        6.7434510000       31.9803022578
 Au         5.8400000000        6.7434510000       31.9803022578
 Au        14.6000000000        6.7434510000       31.9803022578
 Au         8.7600000000        6.7434510000       31.9803022578
 Au        17.5200000000        6.7434510000       31.9803022578
 Au    0.000000    0.000000    56.8219922578    R1
Au    8.760000    0.000000    56.8219922578    R1
Au    4.380000    7.586382    56.8219922578    R1
Au    13.140000    7.586382    56.8219922578    R1
Au    2.920000    0.000000    56.8219922578    R1
Au    11.680000    0.000000    56.8219922578    R1
Au    7.300000    7.586382    56.8219922578    R1
Au    16.059999    7.586382    56.8219922578    R1
Au    5.840000    0.000000    56.8219922578    R1
Au    14.600000    0.000000    56.8219922578    R1
Au    10.220000    7.586382    56.8219922578    R1
Au    18.980000    7.586382    56.8219922578    R1
Au    1.460000    2.528794    56.8219922578    R1
Au    10.220000    2.528794    56.8219922578    R1
Au    5.840000    10.115176    56.8219922578    R1
Au    14.600000    10.115176    56.8219922578    R1
Au    4.380000    2.528794    56.8219922578    R1
Au    13.140000    2.528794    56.8219922578    R1
Au    8.760000    10.115176    56.8219922578    R1
Au    17.520000    10.115176    56.8219922578    R1
Au    7.300000    2.528794    56.8219922578    R1
Au    16.059999    2.528794    56.8219922578    R1
Au    11.680000    10.115176    56.8219922578    R1
Au    20.440001    10.115176    56.8219922578    R1
Au    2.920000    5.057588    56.8219922578    R1
Au    11.680000    5.057588    56.8219922578    R1
Au    5.840000    5.057588    56.8219922578    R1
Au    14.600000    5.057588    56.8219922578    R1
Au    8.760000    5.057588    56.8219922578    R1
Au    17.520000    5.057588    56.8219922578    R1
Au    1.460000    0.842931    59.2061622578    R1
Au    10.220000    0.842931    59.2061622578    R1
Au    5.840000    8.429314    59.2061622578    R1
Au    14.600000    8.429314    59.2061622578    R1
Au    4.380000    0.842931    59.2061622578    R1
Au    13.140000    0.842931    59.2061622578    R1
Au    8.760000    8.429314    59.2061622578    R1
Au    17.520000    8.429314    59.2061622578    R1
Au    7.300000    0.842931    59.2061622578    R1
Au    16.059999    0.842931    59.2061622578    R1
Au    11.680000    8.429314    59.2061622578    R1
Au    20.440001    8.429314    59.2061622578    R1
Au    2.920000    3.371726    59.2061622578    R1
Au    11.680000    3.371726    59.2061622578    R1
Au    7.300000    10.958108    59.2061622578    R1
Au    16.059999    10.958108    59.2061622578    R1
Au    5.840000    3.371726    59.2061622578    R1
Au    14.600000    3.371726    59.2061622578    R1
Au    10.220000    10.958108    59.2061622578    R1
Au    18.980000    10.958108    59.2061622578    R1
Au    8.760000    3.371726    59.2061622578    R1
Au    17.520000    3.371726    59.2061622578    R1
Au    13.140000    10.958108    59.2061622578    R1
Au    21.900000    10.958108    59.2061622578    R1
Au    4.380000    5.900520    59.2061622578    R1
Au    13.140000    5.900520    59.2061622578    R1
Au    7.300000    5.900520    59.2061622578    R1
Au    16.059999    5.900520    59.2061622578    R1
Au    10.220000    5.900520    59.2061622578    R1
Au    18.980000    5.900520    59.2061622578    R1
Au    0.000000    1.685863    61.5903322578    R1
Au    8.760000    1.685863    61.5903322578    R1
Au    4.380000    9.272245    61.5903322578    R1
Au    13.140000    9.272245    61.5903322578    R1
Au    2.920000    1.685863    61.5903322578    R1
Au    11.680000    1.685863    61.5903322578    R1
Au    7.300000    9.272245    61.5903322578    R1
Au    16.059999    9.272245    61.5903322578    R1
Au    5.840000    1.685863    61.5903322578    R1
Au    14.600000    1.685863    61.5903322578    R1
Au    10.220000    9.272245    61.5903322578    R1
Au    18.980000    9.272245    61.5903322578    R1
Au    1.460000    4.214657    61.5903322578    R1
Au    10.220000    4.214657    61.5903322578    R1
Au    5.840000    11.801040    61.5903322578    R1
Au    14.600000    11.801040    61.5903322578    R1
Au    4.380000    4.214657    61.5903322578    R1
Au    13.140000    4.214657    61.5903322578    R1
Au    8.760000    11.801040    61.5903322578    R1
Au    17.520000    11.801040    61.5903322578    R1
Au    7.300000    4.214657    61.5903322578    R1
Au    16.059999    4.214657    61.5903322578    R1
Au    11.680000    11.801040    61.5903322578    R1
Au    20.440001    11.801040    61.5903322578    R1
Au    2.920000    6.743451    61.5903322578    R1
Au    11.680000    6.743451    61.5903322578    R1
Au    5.840000    6.743451    61.5903322578    R1
Au    14.600000    6.743451    61.5903322578    R1
Au    8.760000    6.743451    61.5903322578    R1
Au    17.520000    6.743451    61.5903322578    R1
Au    0.000000    0.000000    63.9745012578    R2
Au    8.760000    0.000000    63.9745012578    R2
Au    4.380000    7.586382    63.9745012578    R2
Au    13.140000    7.586382    63.9745012578    R2
Au    2.920000    0.000000    63.9745012578    R2
Au    11.680000    0.000000    63.9745012578    R2
Au    7.300000    7.586382    63.9745012578    R2
Au    16.059999    7.586382    63.9745012578    R2
Au    5.840000    0.000000    63.9745012578    R2
Au    14.600000    0.000000    63.9745012578    R2
Au    10.220000    7.586382    63.9745012578    R2
Au    18.980000    7.586382    63.9745012578    R2
Au    1.460000    2.528794    63.9745012578    R2
Au    10.220000    2.528794    63.9745012578    R2
Au    5.840000    10.115176    63.9745012578    R2
Au    14.600000    10.115176    63.9745012578    R2
Au    4.380000    2.528794    63.9745012578    R2
Au    13.140000    2.528794    63.9745012578    R2
Au    8.760000    10.115176    63.9745012578    R2
Au    17.520000    10.115176    63.9745012578    R2
Au    7.300000    2.528794    63.9745012578    R2
Au    16.059999    2.528794    63.9745012578    R2
Au    11.680000    10.115176    63.9745012578    R2
Au    20.440001    10.115176    63.9745012578    R2
Au    2.920000    5.057588    63.9745012578    R2
Au    11.680000    5.057588    63.9745012578    R2
Au    5.840000    5.057588    63.9745012578    R2
Au    14.600000    5.057588    63.9745012578    R2
Au    8.760000    5.057588    63.9745012578    R2
Au    17.520000    5.057588    63.9745012578    R2
Au    1.460000    0.842931    66.3586722578    R2
Au    10.220000    0.842931    66.3586722578    R2
Au    5.840000    8.429314    66.3586722578    R2
Au    14.600000    8.429314    66.3586722578    R2
Au    4.380000    0.842931    66.3586722578    R2
Au    13.140000    0.842931    66.3586722578    R2
Au    8.760000    8.429314    66.3586722578    R2
Au    17.520000    8.429314    66.3586722578    R2
Au    7.300000    0.842931    66.3586722578    R2
Au    16.059999    0.842931    66.3586722578    R2
Au    11.680000    8.429314    66.3586722578    R2
Au    20.440001    8.429314    66.3586722578    R2
Au    2.920000    3.371726    66.3586722578    R2
Au    11.680000    3.371726    66.3586722578    R2
Au    7.300000    10.958108    66.3586722578    R2
Au    16.059999    10.958108    66.3586722578    R2
Au    5.840000    3.371726    66.3586722578    R2
Au    14.600000    3.371726    66.3586722578    R2
Au    10.220000    10.958108    66.3586722578    R2
Au    18.980000    10.958108    66.3586722578    R2
Au    8.760000    3.371726    66.3586722578    R2
Au    17.520000    3.371726    66.3586722578    R2
Au    13.140000    10.958108    66.3586722578    R2
Au    21.900000    10.958108    66.3586722578    R2
Au    4.380000    5.900520    66.3586722578    R2
Au    13.140000    5.900520    66.3586722578    R2
Au    7.300000    5.900520    66.3586722578    R2
Au    16.059999    5.900520    66.3586722578    R2
Au    10.220000    5.900520    66.3586722578    R2
Au    18.980000    5.900520    66.3586722578    R2
Au    0.000000    1.685863    68.7428422578    R2
Au    8.760000    1.685863    68.7428422578    R2
Au    4.380000    9.272245    68.7428422578    R2
Au    13.140000    9.272245    68.7428422578    R2
Au    2.920000    1.685863    68.7428422578    R2
Au    11.680000    1.685863    68.7428422578    R2
Au    7.300000    9.272245    68.7428422578    R2
Au    16.059999    9.272245    68.7428422578    R2
Au    5.840000    1.685863    68.7428422578    R2
Au    14.600000    1.685863    68.7428422578    R2
Au    10.220000    9.272245    68.7428422578    R2
Au    18.980000    9.272245    68.7428422578    R2
Au    1.460000    4.214657    68.7428422578    R2
Au    10.220000    4.214657    68.7428422578    R2
Au    5.840000    11.801040    68.7428422578    R2
Au    14.600000    11.801040    68.7428422578    R2
Au    4.380000    4.214657    68.7428422578    R2
Au    13.140000    4.214657    68.7428422578    R2
Au    8.760000    11.801040    68.7428422578    R2
Au    17.520000    11.801040    68.7428422578    R2
Au    7.300000    4.214657    68.7428422578    R2
Au    16.059999    4.214657    68.7428422578    R2
Au    11.680000    11.801040    68.7428422578    R2
Au    20.440001    11.801040    68.7428422578    R2
Au    2.920000    6.743451    68.7428422578    R2
Au    11.680000    6.743451    68.7428422578    R2
Au    5.840000    6.743451    68.7428422578    R2
Au    14.600000    6.743451    68.7428422578    R2
Au    8.760000    6.743451    68.7428422578    R2
Au    17.520000    6.743451    68.7428422578    R2
Au    0.000000    0.000000    71.12701125779999    R3
Au    8.760000    0.000000    71.12701125779999    R3
Au    4.380000    7.586382    71.12701125779999    R3
Au    13.140000    7.586382    71.12701125779999    R3
Au    2.920000    0.000000    71.12701125779999    R3
Au    11.680000    0.000000    71.12701125779999    R3
Au    7.300000    7.586382    71.12701125779999    R3
Au    16.059999    7.586382    71.12701125779999    R3
Au    5.840000    0.000000    71.12701125779999    R3
Au    14.600000    0.000000    71.12701125779999    R3
Au    10.220000    7.586382    71.12701125779999    R3
Au    18.980000    7.586382    71.12701125779999    R3
Au    1.460000    2.528794    71.12701125779999    R3
Au    10.220000    2.528794    71.12701125779999    R3
Au    5.840000    10.115176    71.12701125779999    R3
Au    14.600000    10.115176    71.12701125779999    R3
Au    4.380000    2.528794    71.12701125779999    R3
Au    13.140000    2.528794    71.12701125779999    R3
Au    8.760000    10.115176    71.12701125779999    R3
Au    17.520000    10.115176    71.12701125779999    R3
Au    7.300000    2.528794    71.12701125779999    R3
Au    16.059999    2.528794    71.12701125779999    R3
Au    11.680000    10.115176    71.12701125779999    R3
Au    20.440001    10.115176    71.12701125779999    R3
Au    2.920000    5.057588    71.12701125779999    R3
Au    11.680000    5.057588    71.12701125779999    R3
Au    5.840000    5.057588    71.12701125779999    R3
Au    14.600000    5.057588    71.12701125779999    R3
Au    8.760000    5.057588    71.12701125779999    R3
Au    17.520000    5.057588    71.12701125779999    R3
Au    1.460000    0.842931    73.5111822578    R3
Au    10.220000    0.842931    73.5111822578    R3
Au    5.840000    8.429314    73.5111822578    R3
Au    14.600000    8.429314    73.5111822578    R3
Au    4.380000    0.842931    73.5111822578    R3
Au    13.140000    0.842931    73.5111822578    R3
Au    8.760000    8.429314    73.5111822578    R3
Au    17.520000    8.429314    73.5111822578    R3
Au    7.300000    0.842931    73.5111822578    R3
Au    16.059999    0.842931    73.5111822578    R3
Au    11.680000    8.429314    73.5111822578    R3
Au    20.440001    8.429314    73.5111822578    R3
Au    2.920000    3.371726    73.5111822578    R3
Au    11.680000    3.371726    73.5111822578    R3
Au    7.300000    10.958108    73.5111822578    R3
Au    16.059999    10.958108    73.5111822578    R3
Au    5.840000    3.371726    73.5111822578    R3
Au    14.600000    3.371726    73.5111822578    R3
Au    10.220000    10.958108    73.5111822578    R3
Au    18.980000    10.958108    73.5111822578    R3
Au    8.760000    3.371726    73.5111822578    R3
Au    17.520000    3.371726    73.5111822578    R3
Au    13.140000    10.958108    73.5111822578    R3
Au    21.900000    10.958108    73.5111822578    R3
Au    4.380000    5.900520    73.5111822578    R3
Au    13.140000    5.900520    73.5111822578    R3
Au    7.300000    5.900520    73.5111822578    R3
Au    16.059999    5.900520    73.5111822578    R3
Au    10.220000    5.900520    73.5111822578    R3
Au    18.980000    5.900520    73.5111822578    R3
Au    0.000000    1.685863    75.8953522578    R3
Au    8.760000    1.685863    75.8953522578    R3
Au    4.380000    9.272245    75.8953522578    R3
Au    13.140000    9.272245    75.8953522578    R3
Au    2.920000    1.685863    75.8953522578    R3
Au    11.680000    1.685863    75.8953522578    R3
Au    7.300000    9.272245    75.8953522578    R3
Au    16.059999    9.272245    75.8953522578    R3
Au    5.840000    1.685863    75.8953522578    R3
Au    14.600000    1.685863    75.8953522578    R3
Au    10.220000    9.272245    75.8953522578    R3
Au    18.980000    9.272245    75.8953522578    R3