     131
 i =      574, E =     -3327.2823575190
 Au         0.0000000000        0.0000000000        0.0000000000
 Au         8.7600000000        0.0000000000        0.0000000000
 Au         4.3800000000        7.5863820000        0.0000000000
 Au        13.1400000000        7.5863820000        0.0000000000
 Au         2.9200000000        0.0000000000        0.0000000000
 Au         7.3000000000        7.5863820000        0.0000000000
 Au         5.8400000000        0.0000000000        0.0000000000
 Au        10.2200000000        7.5863820000        0.0000000000
 Au         1.4600000000        2.5287940000        0.0000000000
 Au        10.2200000000        2.5287940000        0.0000000000
 Au         4.3800000000        2.5287940000        0.0000000000
 Au         7.3000000000        2.5287940000        0.0000000000
 Au         2.9200000000        5.0575880000        0.0000000000
 Au        11.6800000000        5.0575880000        0.0000000000
 Au         5.8400000000        5.0575880000        0.0000000000
 Au         8.7600000000        5.0575880000        0.0000000000
 Au         1.4600000000        0.8429310000        2.3841700000
 Au        10.2200000000        0.8429310000        2.3841700000
 Au         5.8400000000        8.4293140000        2.3841700000
 Au        14.6000000000        8.4293140000        2.3841700000
 Au         4.3800000000        0.8429310000        2.3841700000
 Au         8.7600000000        8.4293140000        2.3841700000
 Au         7.3000000000        0.8429310000        2.3841700000
 Au        11.6800000000        8.4293140000        2.3841700000
 Au         2.9200000000        3.3717260000        2.3841700000
 Au        11.6800000000        3.3717260000        2.3841700000
 Au         5.8400000000        3.3717260000        2.3841700000
 Au         8.7600000000        3.3717260000        2.3841700000
 Au         4.3800000000        5.9005200000        2.3841700000
 Au        13.1400000000        5.9005200000        2.3841700000
 Au         7.3000000000        5.9005200000        2.3841700000
 Au        10.2200000000        5.9005200000        2.3841700000
 Au         8.7600000000        1.6858630000        4.7683400000
 Au        13.1400000000        9.2722450000        4.7683400000
 Au         2.9200000000        1.6858630000        4.7683400000
 Au        11.6800000000        1.6858630000        4.7683400000
 Au         7.3000000000        9.2722450000        4.7683400000
 Au        16.0599990000        9.2722450000        4.7683400000
 Au         5.8400000000        1.6858630000        4.7683400000
 Au        10.2200000000        9.2722450000        4.7683400000
 Au        10.2200000000        4.2146570000        4.7683400000
 Au         4.3800000000        4.2146570000        4.7683400000
 Au        13.1400000000        4.2146570000        4.7683400000
 Au         7.3000000000        4.2146570000        4.7683400000
 Au        11.6800000000        6.7434510000        4.7683400000
 Au         5.8400000000        6.7434510000        4.7683400000
 Au        14.6000000000        6.7434510000        4.7683400000
 Au         8.7600000000        6.7434510000        4.7683400000
  C         8.7626978271        6.7490922836       19.5937670286
  C         9.9722805547        6.2852049890       19.0443412367
  C         9.9764326058        5.6484257507       17.8065848977
  C         8.7870764121        5.4480327602       17.0756750194
  C         7.5567263551        6.4789594909       18.9196113691
  C         7.5770184165        5.8469089370       17.6805742465
  C         8.8105042258        4.8825160552       15.7074321836
  C         9.7422683411        3.9000595571       15.3261482750
  C         9.7689688742        3.3999422856       14.0237132346
  C         8.8736409382        3.8572903968       13.0455906732
  C         7.9123510320        5.3408295572       14.7217769124
  C         7.9469414562        4.8432925021       13.4211405942
  C         8.8754499753        3.2645081775       11.6470371975
  C         8.9217812115        4.2547117932       10.4983812780
  C         8.0050564802        4.1753302258        9.4369809666
  C         8.0523030231        5.0637965568        8.3635516059
  C         9.0356820944        6.0682453297        8.3183673122
  C         9.9110728025        5.2503518139       10.4381138682
  C         9.9794797242        6.1355918115        9.3661691592
  H        10.9096751478        6.4721854101       19.5685174269
  H        10.9313679194        5.3496264240       17.3726009430
  S         8.7672780760        7.9231854211       20.9197609684
  H         6.6105154947        6.7957313297       19.3586506143
  H         6.6322842510        5.6556562089       17.1703525034
  H         7.1967450325        6.1253045075       14.9719609260
  H        10.4399473857        3.5020034676       16.0643600761
  H        10.4954606782        2.6267545536       13.7643579257
  H         7.2490046219        5.2357615925       12.6789705217
  H        10.6413101192        5.3337988558       11.2453020345
  H         7.2302136995        3.4058657441        9.4531085921
  H         7.3124121990        4.9953088897        7.5643648267
  S         9.0461945280        7.3821476187        7.1389921671
  H        10.7572825301        6.8988931666        9.3360221937
  H         9.7352852001        2.5790238854       11.5601532021
  H         7.9797520732        2.6324004373       11.5277005912
 Au         0.0000000000        0.0000000000       23.0678022631
 Au         8.7600000000        0.0000000000       23.0678022631
 Au         4.3800000000        7.5863820000       23.0678022631
 Au        13.1400000000        7.5863820000       23.0678022631
 Au         2.9200000000        0.0000000000       23.0678022631
 Au         7.3000000000        7.5863820000       23.0678022631
 Au         5.8400000000        0.0000000000       23.0678022631
 Au        10.2200000000        7.5863820000       23.0678022631
 Au         1.4600000000        2.5287940000       23.0678022631
 Au        10.2200000000        2.5287940000       23.0678022631
 Au         4.3800000000        2.5287940000       23.0678022631
 Au         7.3000000000        2.5287940000       23.0678022631
 Au         2.9200000000        5.0575880000       23.0678022631
 Au        11.6800000000        5.0575880000       23.0678022631
 Au         5.8400000000        5.0575880000       23.0678022631
 Au         8.7600000000        5.0575880000       23.0678022631
 Au         1.4600000000        0.8429310000       25.4519722631
 Au        10.2200000000        0.8429310000       25.4519722631
 Au         5.8400000000        8.4293140000       25.4519722631
 Au        14.6000000000        8.4293140000       25.4519722631
 Au         4.3800000000        0.8429310000       25.4519722631
 Au         8.7600000000        8.4293140000       25.4519722631
 Au         7.3000000000        0.8429310000       25.4519722631
 Au        11.6800000000        8.4293140000       25.4519722631
 Au         2.9200000000        3.3717260000       25.4519722631
 Au        11.6800000000        3.3717260000       25.4519722631
 Au         5.8400000000        3.3717260000       25.4519722631
 Au         8.7600000000        3.3717260000       25.4519722631
 Au         4.3800000000        5.9005200000       25.4519722631
 Au        13.1400000000        5.9005200000       25.4519722631
 Au         7.3000000000        5.9005200000       25.4519722631
 Au        10.2200000000        5.9005200000       25.4519722631
 Au         8.7600000000        1.6858630000       27.8361422631
 Au        13.1400000000        9.2722450000       27.8361422631
 Au         2.9200000000        1.6858630000       27.8361422631
 Au        11.6800000000        1.6858630000       27.8361422631
 Au         7.3000000000        9.2722450000       27.8361422631
 Au        16.0599990000        9.2722450000       27.8361422631
 Au         5.8400000000        1.6858630000       27.8361422631
 Au        10.2200000000        9.2722450000       27.8361422631
 Au        10.2200000000        4.2146570000       27.8361422631
 Au         4.3800000000        4.2146570000       27.8361422631
 Au        13.1400000000        4.2146570000       27.8361422631
 Au         7.3000000000        4.2146570000       27.8361422631
 Au        11.6800000000        6.7434510000       27.8361422631
 Au         5.8400000000        6.7434510000       27.8361422631
 Au        14.6000000000        6.7434510000       27.8361422631
 Au         8.7600000000        6.7434510000       27.8361422631
Au    0.000000    0.000000    51.6778423991    R1
Au    8.760000    0.000000    51.6778423991    R1
Au    4.380000    7.586382    51.6778423991    R1
Au    13.140000    7.586382    51.6778423991    R1
Au    2.920000    0.000000    51.6778423991    R1
Au    7.300000    7.586382    51.6778423991    R1
Au    5.840000    0.000000    51.6778423991    R1
Au    10.220000    7.586382    51.6778423991    R1
Au    1.460000    2.528794    51.6778423991    R1
Au    10.220000    2.528794    51.6778423991    R1
Au    4.380000    2.528794    51.6778423991    R1
Au    7.300000    2.528794    51.6778423991    R1
Au    2.920000    5.057588    51.6778423991    R1
Au    11.680000    5.057588    51.6778423991    R1
Au    5.840000    5.057588    51.6778423991    R1
Au    8.760000    5.057588    51.6778423991    R1
Au    1.460000    0.842931    54.0620123991    R1
Au    10.220000    0.842931    54.0620123991    R1
Au    5.840000    8.429314    54.0620123991    R1
Au    14.600000    8.429314    54.0620123991    R1
Au    4.380000    0.842931    54.0620123991    R1
Au    8.760000    8.429314    54.0620123991    R1
Au    7.300000    0.842931    54.0620123991    R1
Au    11.680000    8.429314    54.0620123991    R1
Au    2.920000    3.371726    54.0620123991    R1
Au    11.680000    3.371726    54.0620123991    R1
Au    5.840000    3.371726    54.0620123991    R1
Au    8.760000    3.371726    54.0620123991    R1
Au    4.380000    5.900520    54.0620123991    R1
Au    13.140000    5.900520    54.0620123991    R1
Au    7.300000    5.900520    54.0620123991    R1
Au    10.220000    5.900520    54.0620123991    R1
Au    8.760000    1.685863    56.4461823991    R1
Au    13.140000    9.272245    56.4461823991    R1
Au    2.920000    1.685863    56.4461823991    R1
Au    11.680000    1.685863    56.4461823991    R1
Au    7.300000    9.272245    56.4461823991    R1
Au    16.059999    9.272245    56.4461823991    R1
Au    5.840000    1.685863    56.4461823991    R1
Au    10.220000    9.272245    56.4461823991    R1
Au    10.220000    4.214657    56.4461823991    R1
Au    4.380000    4.214657    56.4461823991    R1
Au    13.140000    4.214657    56.4461823991    R1
Au    7.300000    4.214657    56.4461823991    R1
Au    11.680000    6.743451    56.4461823991    R1
Au    5.840000    6.743451    56.4461823991    R1
Au    14.600000    6.743451    56.4461823991    R1
Au    8.760000    6.743451    56.4461823991    R1
Au    0.000000    0.000000    58.8303513991    R2
Au    8.760000    0.000000    58.8303513991    R2
Au    4.380000    7.586382    58.8303513991    R2
Au    13.140000    7.586382    58.8303513991    R2
Au    2.920000    0.000000    58.8303513991    R2
Au    7.300000    7.586382    58.8303513991    R2
Au    5.840000    0.000000    58.8303513991    R2
Au    10.220000    7.586382    58.8303513991    R2
Au    1.460000    2.528794    58.8303513991    R2
Au    10.220000    2.528794    58.8303513991    R2
Au    4.380000    2.528794    58.8303513991    R2
Au    7.300000    2.528794    58.8303513991    R2
Au    2.920000    5.057588    58.8303513991    R2
Au    11.680000    5.057588    58.8303513991    R2
Au    5.840000    5.057588    58.8303513991    R2
Au    8.760000    5.057588    58.8303513991    R2
Au    1.460000    0.842931    61.214522399100005    R2
Au    10.220000    0.842931    61.214522399100005    R2
Au    5.840000    8.429314    61.214522399100005    R2
Au    14.600000    8.429314    61.214522399100005    R2
Au    4.380000    0.842931    61.214522399100005    R2
Au    8.760000    8.429314    61.214522399100005    R2
Au    7.300000    0.842931    61.214522399100005    R2
Au    11.680000    8.429314    61.214522399100005    R2
Au    2.920000    3.371726    61.214522399100005    R2
Au    11.680000    3.371726    61.214522399100005    R2
Au    5.840000    3.371726    61.214522399100005    R2
Au    8.760000    3.371726    61.214522399100005    R2
Au    4.380000    5.900520    61.214522399100005    R2
Au    13.140000    5.900520    61.214522399100005    R2
Au    7.300000    5.900520    61.214522399100005    R2
Au    10.220000    5.900520    61.214522399100005    R2
Au    8.760000    1.685863    63.5986923991    R2
Au    13.140000    9.272245    63.5986923991    R2
Au    2.920000    1.685863    63.5986923991    R2
Au    11.680000    1.685863    63.5986923991    R2
Au    7.300000    9.272245    63.5986923991    R2
Au    16.059999    9.272245    63.5986923991    R2
Au    5.840000    1.685863    63.5986923991    R2
Au    10.220000    9.272245    63.5986923991    R2
Au    10.220000    4.214657    63.5986923991    R2
Au    4.380000    4.214657    63.5986923991    R2
Au    13.140000    4.214657    63.5986923991    R2
Au    7.300000    4.214657    63.5986923991    R2
Au    11.680000    6.743451    63.5986923991    R2
Au    5.840000    6.743451    63.5986923991    R2
Au    14.600000    6.743451    63.5986923991    R2
Au    8.760000    6.743451    63.5986923991    R2
Au    0.000000    0.000000    65.9828613991    R3
Au    8.760000    0.000000    65.9828613991    R3
Au    4.380000    7.586382    65.9828613991    R3
Au    13.140000    7.586382    65.9828613991    R3
Au    2.920000    0.000000    65.9828613991    R3
Au    7.300000    7.586382    65.9828613991    R3
Au    5.840000    0.000000    65.9828613991    R3
Au    10.220000    7.586382    65.9828613991    R3
Au    1.460000    2.528794    65.9828613991    R3
Au    10.220000    2.528794    65.9828613991    R3
Au    4.380000    2.528794    65.9828613991    R3
Au    7.300000    2.528794    65.9828613991    R3
Au    2.920000    5.057588    65.9828613991    R3
Au    11.680000    5.057588    65.9828613991    R3
Au    5.840000    5.057588    65.9828613991    R3
Au    8.760000    5.057588    65.9828613991    R3
Au    1.460000    0.842931    68.3670323991    R3
Au    10.220000    0.842931    68.3670323991    R3
Au    5.840000    8.429314    68.3670323991    R3
Au    14.600000    8.429314    68.3670323991    R3
Au    4.380000    0.842931    68.3670323991    R3
Au    8.760000    8.429314    68.3670323991    R3
Au    7.300000    0.842931    68.3670323991    R3
Au    11.680000    8.429314    68.3670323991    R3
Au    2.920000    3.371726    68.3670323991    R3
Au    11.680000    3.371726    68.3670323991    R3
Au    5.840000    3.371726    68.3670323991    R3
Au    8.760000    3.371726    68.3670323991    R3
Au    4.380000    5.900520    68.3670323991    R3
Au    13.140000    5.900520    68.3670323991    R3
Au    7.300000    5.900520    68.3670323991    R3
Au    10.220000    5.900520    68.3670323991    R3
Au    8.760000    1.685863    70.75120239910001    R3
Au    13.140000    9.272245    70.75120239910001    R3
Au    2.920000    1.685863    70.75120239910001    R3
Au    11.680000    1.685863    70.75120239910001    R3
Au    7.300000    9.272245    70.75120239910001    R3
Au    16.059999    9.272245    70.75120239910001    R3
Au    5.840000    1.685863    70.75120239910001    R3
Au    10.220000    9.272245    70.75120239910001    R3
Au    10.220000    4.214657    70.75120239910001    R3
Au    4.380000    4.214657    70.75120239910001    R3
Au    13.140000    4.214657    70.75120239910001    R3
Au    7.300000    4.214657    70.75120239910001    R3
Au    11.680000    6.743451    70.75120239910001    R3
Au    5.840000    6.743451    70.75120239910001    R3
Au    14.600000    6.743451    70.75120239910001    R3
Au    8.760000    6.743451    70.75120239910001    R3
