32
	Energy:      31.8666088
C         -1.55853        1.26063      -11.88880
C         -1.52966        2.60009      -11.49265
C         -1.48664        2.92887      -10.13492
C         -1.46827        1.92394       -9.15180
C         -1.54646        0.24975      -10.92401
C         -1.50281        0.57428       -9.56445
C         -1.42514        2.35879       -7.69805
C         -2.45125        1.01020       -5.68815
C         -1.98867        1.21570       -4.26281
C         -1.52757        2.47955       -3.84359
C         -1.10026        2.67412       -2.52672
C         -1.12831        1.61575       -1.61466
C         -2.01615        0.15537       -3.33493
C         -1.58634        0.35892       -2.01962
F         -2.45447       -1.07687       -3.69769
F         -1.49427        3.52531       -4.70800
H         -1.54097        3.38861      -12.23446
H         -1.46536        3.97324       -9.84763
H         -0.74789        3.64973       -2.21622
H         -1.61001       -0.46284       -1.31501
S         -1.61478        0.84067      -13.62759
H         -1.57279       -0.78992      -11.22522
H         -1.50311       -0.23698       -8.85113
S         -0.58008        1.86997        0.06994
C         -1.32649        1.24254       -6.67513
C         -0.22989        0.46593       -6.63153
H         -3.29819        1.70302       -5.87871
H         -2.83464       -0.02043       -5.84608
H         -2.34073        2.96016       -7.51312
H         -0.55089        3.02872       -7.54543
H         -0.14128       -0.33389       -5.90243
H          0.59073        0.62282       -7.32518
