58
	Energy:     126.5507199
C          0.56785        4.40321       -1.56307
C         -0.64077        3.87845       -2.01350
C         -1.20877        2.76849       -1.38157
C         -0.57912        2.14683       -0.27221
C          1.21141        3.81612       -0.47670
C          0.65090        2.70590        0.16143
C         -1.19163        0.94132        0.41718
C         -2.42228        0.38622       -0.01113
C         -2.98354       -0.72443        0.62410
C         -2.34265       -1.33167        1.70982
C         -0.56266        0.31854        1.52282
C         -1.12947       -0.79111        2.15455
C         -2.98411       -3.86913        1.58441
C         -1.21139       -5.39683        0.24390
C         -2.18338       -6.34821       -0.13945
C         -1.82803       -7.45570       -0.91438
C         -0.50316       -7.63413       -1.31952
C          0.11722       -5.59342       -0.17310
C          0.46865       -6.70205       -0.94806
N         -3.90257       -3.68753        0.40864
C         -5.22647       -3.39816        0.41605
C         -5.67166       -3.29320       -0.87895
N         -4.64408       -3.49586       -1.71593
C         -3.58627       -3.72400       -0.91503
H         -1.14649        4.33007       -2.85797
H         -2.14242        2.42446       -1.79017
S          1.29035        5.82458       -2.37620
H          2.15167        4.21914       -0.12129
H          1.20974        2.31187        0.99176
H          0.37220        0.66136        1.92965
H         -2.98489        0.78632       -0.83603
H         -3.92847       -1.09410        0.26136
H         -0.60868       -1.23287        2.99541
H          0.88606       -4.88243        0.10429
H         -3.21796       -6.24795        0.15346
H         -2.58586       -8.17478       -1.19873
S         -0.05206       -9.05353       -2.31168
H          1.49747       -6.83399       -1.25832
H         -6.68140       -3.06655       -1.19362
H         -5.85912       -3.24521        1.26655
H         -2.60227       -3.89599       -1.32133
C         -2.93457       -2.53979        2.41802
H         -3.94323       -2.25544        2.78334
H         -2.31992       -2.75004        3.32260
C         -1.50839       -4.15723        1.08958
H         -0.84547       -4.19752        1.98246
H         -1.16716       -3.29179        0.48204
C         -5.19803       -5.84191        4.12012
C         -3.48662       -4.98517        2.57038
C         -2.70662       -6.12569        2.91456
C         -4.41933       -6.95673        4.40515
C         -3.17225       -7.09390        3.80819
H         -4.77546       -7.70618        5.10017
H         -2.55641       -7.95283        4.04310
H         -1.72303       -6.30266        2.51939
C         -4.73964       -4.87055        3.22618
H         -5.38303       -4.02686        3.08933
H         -6.16077       -5.72252        4.60077
