     700
 i =        3, E =     -3405.6217213800
Au    0.000000    0.000000    0.000000    L3
Au    8.760000    0.000000    0.000000    L3
Au    4.380000    7.586382    0.000000    L3
Au    13.140000    7.586382    0.000000    L3
Au    2.920000    0.000000    0.000000    L3
Au    11.680000    0.000000    0.000000    L3
Au    7.300000    7.586382    0.000000    L3
Au    16.059999    7.586382    0.000000    L3
Au    5.840000    0.000000    0.000000    L3
Au    14.600000    0.000000    0.000000    L3
Au    10.220000    7.586382    0.000000    L3
Au    18.980000    7.586382    0.000000    L3
Au    1.460000    2.528794    0.000000    L3
Au    10.220000    2.528794    0.000000    L3
Au    5.840000    10.115176    0.000000    L3
Au    14.600000    10.115176    0.000000    L3
Au    4.380000    2.528794    0.000000    L3
Au    13.140000    2.528794    0.000000    L3
Au    8.760000    10.115176    0.000000    L3
Au    17.520000    10.115176    0.000000    L3
Au    7.300000    2.528794    0.000000    L3
Au    16.059999    2.528794    0.000000    L3
Au    11.680000    10.115176    0.000000    L3
Au    20.440001    10.115176    0.000000    L3
Au    2.920000    5.057588    0.000000    L3
Au    11.680000    5.057588    0.000000    L3
Au    5.840000    5.057588    0.000000    L3
Au    14.600000    5.057588    0.000000    L3
Au    8.760000    5.057588    0.000000    L3
Au    17.520000    5.057588    0.000000    L3
Au    1.460000    0.842931    2.384170    L3
Au    10.220000    0.842931    2.384170    L3
Au    5.840000    8.429314    2.384170    L3
Au    14.600000    8.429314    2.384170    L3
Au    4.380000    0.842931    2.384170    L3
Au    13.140000    0.842931    2.384170    L3
Au    8.760000    8.429314    2.384170    L3
Au    17.520000    8.429314    2.384170    L3
Au    7.300000    0.842931    2.384170    L3
Au    16.059999    0.842931    2.384170    L3
Au    11.680000    8.429314    2.384170    L3
Au    20.440001    8.429314    2.384170    L3
Au    2.920000    3.371726    2.384170    L3
Au    11.680000    3.371726    2.384170    L3
Au    7.300000    10.958108    2.384170    L3
Au    16.059999    10.958108    2.384170    L3
Au    5.840000    3.371726    2.384170    L3
Au    14.600000    3.371726    2.384170    L3
Au    10.220000    10.958108    2.384170    L3
Au    18.980000    10.958108    2.384170    L3
Au    8.760000    3.371726    2.384170    L3
Au    17.520000    3.371726    2.384170    L3
Au    13.140000    10.958108    2.384170    L3
Au    21.900000    10.958108    2.384170    L3
Au    4.380000    5.900520    2.384170    L3
Au    13.140000    5.900520    2.384170    L3
Au    7.300000    5.900520    2.384170    L3
Au    16.059999    5.900520    2.384170    L3
Au    10.220000    5.900520    2.384170    L3
Au    18.980000    5.900520    2.384170    L3
Au    0.000000    1.685863    4.768340    L3
Au    8.760000    1.685863    4.768340    L3
Au    4.380000    9.272245    4.768340    L3
Au    13.140000    9.272245    4.768340    L3
Au    2.920000    1.685863    4.768340    L3
Au    11.680000    1.685863    4.768340    L3
Au    7.300000    9.272245    4.768340    L3
Au    16.059999    9.272245    4.768340    L3
Au    5.840000    1.685863    4.768340    L3
Au    14.600000    1.685863    4.768340    L3
Au    10.220000    9.272245    4.768340    L3
Au    18.980000    9.272245    4.768340    L3
Au    1.460000    4.214657    4.768340    L3
Au    10.220000    4.214657    4.768340    L3
Au    5.840000    11.801040    4.768340    L3
Au    14.600000    11.801040    4.768340    L3
Au    4.380000    4.214657    4.768340    L3
Au    13.140000    4.214657    4.768340    L3
Au    8.760000    11.801040    4.768340    L3
Au    17.520000    11.801040    4.768340    L3
Au    7.300000    4.214657    4.768340    L3
Au    16.059999    4.214657    4.768340    L3
Au    11.680000    11.801040    4.768340    L3
Au    20.440001    11.801040    4.768340    L3
Au    2.920000    6.743451    4.768340    L3
Au    11.680000    6.743451    4.768340    L3
Au    5.840000    6.743451    4.768340    L3
Au    14.600000    6.743451    4.768340    L3
Au    8.760000    6.743451    4.768340    L3
Au    17.520000    6.743451    4.768340    L3
Au    0.000000    0.000000    7.152510    L2
Au    8.760000    0.000000    7.152510    L2
Au    4.380000    7.586382    7.152510    L2
Au    13.140000    7.586382    7.152510    L2
Au    2.920000    0.000000    7.152510    L2
Au    11.680000    0.000000    7.152510    L2
Au    7.300000    7.586382    7.152510    L2
Au    16.059999    7.586382    7.152510    L2
Au    5.840000    0.000000    7.152510    L2
Au    14.600000    0.000000    7.152510    L2
Au    10.220000    7.586382    7.152510    L2
Au    18.980000    7.586382    7.152510    L2
Au    1.460000    2.528794    7.152510    L2
Au    10.220000    2.528794    7.152510    L2
Au    5.840000    10.115176    7.152510    L2
Au    14.600000    10.115176    7.152510    L2
Au    4.380000    2.528794    7.152510    L2
Au    13.140000    2.528794    7.152510    L2
Au    8.760000    10.115176    7.152510    L2
Au    17.520000    10.115176    7.152510    L2
Au    7.300000    2.528794    7.152510    L2
Au    16.059999    2.528794    7.152510    L2
Au    11.680000    10.115176    7.152510    L2
Au    20.440001    10.115176    7.152510    L2
Au    2.920000    5.057588    7.152510    L2
Au    11.680000    5.057588    7.152510    L2
Au    5.840000    5.057588    7.152510    L2
Au    14.600000    5.057588    7.152510    L2
Au    8.760000    5.057588    7.152510    L2
Au    17.520000    5.057588    7.152510    L2
Au    1.460000    0.842931    9.536680    L2
Au    10.220000    0.842931    9.536680    L2
Au    5.840000    8.429314    9.536680    L2
Au    14.600000    8.429314    9.536680    L2
Au    4.380000    0.842931    9.536680    L2
Au    13.140000    0.842931    9.536680    L2
Au    8.760000    8.429314    9.536680    L2
Au    17.520000    8.429314    9.536680    L2
Au    7.300000    0.842931    9.536680    L2
Au    16.059999    0.842931    9.536680    L2
Au    11.680000    8.429314    9.536680    L2
Au    20.440001    8.429314    9.536680    L2
Au    2.920000    3.371726    9.536680    L2
Au    11.680000    3.371726    9.536680    L2
Au    7.300000    10.958108    9.536680    L2
Au    16.059999    10.958108    9.536680    L2
Au    5.840000    3.371726    9.536680    L2
Au    14.600000    3.371726    9.536680    L2
Au    10.220000    10.958108    9.536680    L2
Au    18.980000    10.958108    9.536680    L2
Au    8.760000    3.371726    9.536680    L2
Au    17.520000    3.371726    9.536680    L2
Au    13.140000    10.958108    9.536680    L2
Au    21.900000    10.958108    9.536680    L2
Au    4.380000    5.900520    9.536680    L2
Au    13.140000    5.900520    9.536680    L2
Au    7.300000    5.900520    9.536680    L2
Au    16.059999    5.900520    9.536680    L2
Au    10.220000    5.900520    9.536680    L2
Au    18.980000    5.900520    9.536680    L2
Au    0.000000    1.685863    11.920850    L2
Au    8.760000    1.685863    11.920850    L2
Au    4.380000    9.272245    11.920850    L2
Au    13.140000    9.272245    11.920850    L2
Au    2.920000    1.685863    11.920850    L2
Au    11.680000    1.685863    11.920850    L2
Au    7.300000    9.272245    11.920850    L2
Au    16.059999    9.272245    11.920850    L2
Au    5.840000    1.685863    11.920850    L2
Au    14.600000    1.685863    11.920850    L2
Au    10.220000    9.272245    11.920850    L2
Au    18.980000    9.272245    11.920850    L2
Au    1.460000    4.214657    11.920850    L2
Au    10.220000    4.214657    11.920850    L2
Au    5.840000    11.801040    11.920850    L2
Au    14.600000    11.801040    11.920850    L2
Au    4.380000    4.214657    11.920850    L2
Au    13.140000    4.214657    11.920850    L2
Au    8.760000    11.801040    11.920850    L2
Au    17.520000    11.801040    11.920850    L2
Au    7.300000    4.214657    11.920850    L2
Au    16.059999    4.214657    11.920850    L2
Au    11.680000    11.801040    11.920850    L2
Au    20.440001    11.801040    11.920850    L2
Au    2.920000    6.743451    11.920850    L2
Au    11.680000    6.743451    11.920850    L2
Au    5.840000    6.743451    11.920850    L2
Au    14.600000    6.743451    11.920850    L2
Au    8.760000    6.743451    11.920850    L2
Au    17.520000    6.743451    11.920850    L2
Au    0.000000    0.000000    14.305019    L1
Au    8.760000    0.000000    14.305019    L1
Au    4.380000    7.586382    14.305019    L1
Au    13.140000    7.586382    14.305019    L1
Au    2.920000    0.000000    14.305019    L1
Au    11.680000    0.000000    14.305019    L1
Au    7.300000    7.586382    14.305019    L1
Au    16.059999    7.586382    14.305019    L1
Au    5.840000    0.000000    14.305019    L1
Au    14.600000    0.000000    14.305019    L1
Au    10.220000    7.586382    14.305019    L1
Au    18.980000    7.586382    14.305019    L1
Au    1.460000    2.528794    14.305019    L1
Au    10.220000    2.528794    14.305019    L1
Au    5.840000    10.115176    14.305019    L1
Au    14.600000    10.115176    14.305019    L1
Au    4.380000    2.528794    14.305019    L1
Au    13.140000    2.528794    14.305019    L1
Au    8.760000    10.115176    14.305019    L1
Au    17.520000    10.115176    14.305019    L1
Au    7.300000    2.528794    14.305019    L1
Au    16.059999    2.528794    14.305019    L1
Au    11.680000    10.115176    14.305019    L1
Au    20.440001    10.115176    14.305019    L1
Au    2.920000    5.057588    14.305019    L1
Au    11.680000    5.057588    14.305019    L1
Au    5.840000    5.057588    14.305019    L1
Au    14.600000    5.057588    14.305019    L1
Au    8.760000    5.057588    14.305019    L1
Au    17.520000    5.057588    14.305019    L1
Au    1.460000    0.842931    16.689190    L1
Au    10.220000    0.842931    16.689190    L1
Au    5.840000    8.429314    16.689190    L1
Au    14.600000    8.429314    16.689190    L1
Au    4.380000    0.842931    16.689190    L1
Au    13.140000    0.842931    16.689190    L1
Au    8.760000    8.429314    16.689190    L1
Au    17.520000    8.429314    16.689190    L1
Au    7.300000    0.842931    16.689190    L1
Au    16.059999    0.842931    16.689190    L1
Au    11.680000    8.429314    16.689190    L1
Au    20.440001    8.429314    16.689190    L1
Au    2.920000    3.371726    16.689190    L1
Au    11.680000    3.371726    16.689190    L1
Au    7.300000    10.958108    16.689190    L1
Au    16.059999    10.958108    16.689190    L1
Au    5.840000    3.371726    16.689190    L1
Au    14.600000    3.371726    16.689190    L1
Au    10.220000    10.958108    16.689190    L1
Au    18.980000    10.958108    16.689190    L1
Au    8.760000    3.371726    16.689190    L1
Au    17.520000    3.371726    16.689190    L1
Au    13.140000    10.958108    16.689190    L1
Au    21.900000    10.958108    16.689190    L1
Au    4.380000    5.900520    16.689190    L1
Au    13.140000    5.900520    16.689190    L1
Au    7.300000    5.900520    16.689190    L1
Au    16.059999    5.900520    16.689190    L1
Au    10.220000    5.900520    16.689190    L1
Au    18.980000    5.900520    16.689190    L1
Au    0.000000    1.685863    19.073360    L1
Au    8.760000    1.685863    19.073360    L1
Au    4.380000    9.272245    19.073360    L1
Au    13.140000    9.272245    19.073360    L1
Au    2.920000    1.685863    19.073360    L1
Au    11.680000    1.685863    19.073360    L1
Au    7.300000    9.272245    19.073360    L1
Au    16.059999    9.272245    19.073360    L1
Au    5.840000    1.685863    19.073360    L1
Au    14.600000    1.685863    19.073360    L1
Au    10.220000    9.272245    19.073360    L1
Au    18.980000    9.272245    19.073360    L1
Au    1.460000    4.214657    19.073360    L1
Au    10.220000    4.214657    19.073360    L1
Au    5.840000    11.801040    19.073360    L1
Au    14.600000    11.801040    19.073360    L1
Au    4.380000    4.214657    19.073360    L1
Au    13.140000    4.214657    19.073360    L1
Au    8.760000    11.801040    19.073360    L1
Au    17.520000    11.801040    19.073360    L1
Au    7.300000    4.214657    19.073360    L1
Au    16.059999    4.214657    19.073360    L1
Au    11.680000    11.801040    19.073360    L1
Au    20.440001    11.801040    19.073360    L1
Au    2.920000    6.743451    19.073360    L1
Au    11.680000    6.743451    19.073360    L1
Au    5.840000    6.743451    19.073360    L1
Au    14.600000    6.743451    19.073360    L1
Au    8.760000    6.743451    19.073360    L1
Au    17.520000    6.743451    19.073360    L1
Au    0.0000000000    0.0000000000    21.457530000000002    L0
Au    8.7600000000    0.0000000000    21.457530000000002    L0
Au    4.3800000000    7.5863820000    21.457530000000002    L0
Au    13.1400000000    7.5863820000    21.457530000000002    L0
Au    2.9200000000    0.0000000000    21.457530000000002    L0
Au    11.6800000000    0.0000000000    21.457530000000002    L0
Au    7.3000000000    7.5863820000    21.457530000000002    L0
Au    16.0599990000    7.5863820000    21.457530000000002    L0
Au    5.8400000000    0.0000000000    21.457530000000002    L0
Au    14.6000000000    0.0000000000    21.457530000000002    L0
Au    10.2200000000    7.5863820000    21.457530000000002    L0
Au    18.9800000000    7.5863820000    21.457530000000002    L0
Au    1.4600000000    2.5287940000    21.457530000000002    L0
Au    10.2200000000    2.5287940000    21.457530000000002    L0
Au    5.8400000000    10.1151760000    21.457530000000002    L0
Au    14.6000000000    10.1151760000    21.457530000000002    L0
Au    4.3800000000    2.5287940000    21.457530000000002    L0
Au    13.1400000000    2.5287940000    21.457530000000002    L0
Au    8.7600000000    10.1151760000    21.457530000000002    L0
Au    17.5200000000    10.1151760000    21.457530000000002    L0
Au    7.3000000000    2.5287940000    21.457530000000002    L0
Au    16.0599990000    2.5287940000    21.457530000000002    L0
Au    11.6800000000    10.1151760000    21.457530000000002    L0
Au    20.4400010000    10.1151760000    21.457530000000002    L0
Au    2.9200000000    5.0575880000    21.457530000000002    L0
Au    11.6800000000    5.0575880000    21.457530000000002    L0
Au    5.8400000000    5.0575880000    21.457530000000002    L0
Au    14.6000000000    5.0575880000    21.457530000000002    L0
Au    8.7600000000    5.0575880000    21.457530000000002    L0
Au    17.5200000000    5.0575880000    21.457530000000002    L0
Au    1.4600000000    0.8429310000    23.841700000000003    L0
Au    10.2200000000    0.8429310000    23.841700000000003    L0
Au    5.8400000000    8.4293140000    23.841700000000003    L0
Au    14.6000000000    8.4293140000    23.841700000000003    L0
Au    4.3800000000    0.8429310000    23.841700000000003    L0
Au    13.1400000000    0.8429310000    23.841700000000003    L0
Au    8.7600000000    8.4293140000    23.841700000000003    L0
Au    17.5200000000    8.4293140000    23.841700000000003    L0
Au    7.3000000000    0.8429310000    23.841700000000003    L0
Au    16.0599990000    0.8429310000    23.841700000000003    L0
Au    11.6800000000    8.4293140000    23.841700000000003    L0
Au    20.4400010000    8.4293140000    23.841700000000003    L0
Au    2.9200000000    3.3717260000    23.841700000000003    L0
Au    11.6800000000    3.3717260000    23.841700000000003    L0
Au    7.3000000000    10.9581080000    23.841700000000003    L0
Au    16.0599990000    10.9581080000    23.841700000000003    L0
Au    5.8400000000    3.3717260000    23.841700000000003    L0
Au    14.6000000000    3.3717260000    23.841700000000003    L0
Au    10.2200000000    10.9581080000    23.841700000000003    L0
Au    18.9800000000    10.9581080000    23.841700000000003    L0
Au    8.7600000000    3.3717260000    23.841700000000003    L0
Au    17.5200000000    3.3717260000    23.841700000000003    L0
Au    13.1400000000    10.9581080000    23.841700000000003    L0
Au    21.9000000000    10.9581080000    23.841700000000003    L0
Au    4.3800000000    5.9005200000    23.841700000000003    L0
Au    13.1400000000    5.9005200000    23.841700000000003    L0
Au    7.3000000000    5.9005200000    23.841700000000003    L0
Au    16.0599990000    5.9005200000    23.841700000000003    L0
Au    10.2200000000    5.9005200000    23.841700000000003    L0
Au    18.9800000000    5.9005200000    23.841700000000003    L0
Au    0.0000000000    1.6858630000    26.22587    L0
Au    8.7600000000    1.6858630000    26.22587    L0
Au    4.3800000000    9.2722450000    26.22587    L0
Au    13.1400000000    9.2722450000    26.22587    L0
Au    2.9200000000    1.6858630000    26.22587    L0
Au    11.6800000000    1.6858630000    26.22587    L0
Au    7.3000000000    9.2722450000    26.22587    L0
Au    16.0599990000    9.2722450000    26.22587    L0
Au    5.8400000000    1.6858630000    26.22587    L0
Au    14.6000000000    1.6858630000    26.22587    L0
Au    10.2200000000    9.2722450000    26.22587    L0
Au    18.9800000000    9.2722450000    26.22587    L0
Au    1.4600000000    4.2146570000    26.22587    L0
Au    10.2200000000    4.2146570000    26.22587    L0
Au    5.8400000000    11.8010400000    26.22587    L0
Au    14.6000000000    11.8010400000    26.22587    L0
Au    4.3800000000    4.2146570000    26.22587    L0
Au    13.1400000000    4.2146570000    26.22587    L0
Au    8.7600000000    11.8010400000    26.22587    L0
Au    17.5200000000    11.8010400000    26.22587    L0
Au    7.3000000000    4.2146570000    26.22587    L0
Au    16.0599990000    4.2146570000    26.22587    L0
Au    11.6800000000    11.8010400000    26.22587    L0
Au    20.4400010000    11.8010400000    26.22587    L0
Au    2.9200000000    6.7434510000    26.22587    L0
Au    11.6800000000    6.7434510000    26.22587    L0
Au    5.8400000000    6.7434510000    26.22587    L0
Au    14.6000000000    6.7434510000    26.22587    L0
Au    8.7600000000    6.7434510000    26.22587    L0
Au    17.5200000000    6.7434510000    26.22587    L0
H    11.4760775723    5.5495051494    32.641227581100004    S
C    11.1570200002    6.1578235073    31.793100080900004    S
C    11.2936864407    7.5531094213    31.8554226316    S
C    10.8875522164    8.3022151417    30.737166133000002    S
H    10.9991721771    9.3882800095    30.738770675    S
C    10.3104496997    7.6922318733    29.6267424575    S
H    9.9618928181    8.2994884467    28.7894394475    S
C    10.1413676728    6.2980418817    29.595933727200002    S
C    10.6007759074    5.5295380005    30.680657943600004    S
H    10.4888487997    4.4452596373    30.662994356000002    S
C    11.8041112650    8.2245132029    33.1090515961    S
C    10.7977843071    9.2292170035    33.7245715413    S
H    12.7351199277    8.7744999463    32.8902904304    S
H    12.0707102468    7.4537584901    33.8465920633    S
C    11.2403710751    9.7632078592    35.098659845200004    S
C    9.4007784300    8.6505782532    33.9993540171    S
C    8.2321281928    8.4645182579    41.747884143600004    S
C    7.8274216313    7.1400383278    42.177867278    S
C    9.0176196341    6.4032343779    42.5525877817    S
C    10.1678242366    7.2726758076    42.3570351269    S
C    9.6805897156    8.5454442189    41.8522598279    S
C    10.4144240893    9.2368984771    40.883912    S
C    11.6671388993    8.6975198193    40.389804137300004    S
C    12.1400815257    7.4738671123    40.8818540671    S
C    11.3700388199    6.7472306208    41.878206381400005    S
C    11.4726573612    5.3281302140    41.573622605400004    S
C    10.3675970138    4.4923817733    41.7581854545    S
C    9.1164719844    5.0380084993    42.2592729137    S
C    8.0275358083    4.3594889996    41.585346819    S
C    6.8745830312    5.0679152236    41.2265275356    S
C    6.7715683719    6.4823597645    41.5247400354    S
C    6.0877674057    7.1289209714    40.4214630961    S
C    5.7708910630    6.1094980222    39.43349859520001    S
C    6.2512498898    4.8319416238    39.9332599638    S
C    6.8001670069    3.8991636591    39.0501043317    S
C    7.9982886445    3.1627922289    39.4233601918    S
C    8.6001347392    3.3912003316    40.66412587480001    S
C    10.0471432268    3.4763677975    40.7697280868    S
C    10.8396983440    3.3403596107    39.6262171404    S
C    11.9847773543    4.2134749141    39.4305189207    S
C    12.3015856533    5.1860821963    40.3896706963    S
C    12.7142046095    6.5091580282    39.9641245297    S
C    12.7927803762    6.8100820027    38.5984255023    S
C    12.3020439326    8.0786788001    38.0901600982    S
C    11.7609815719    9.0050205170    38.9739761015    S
C    10.5441179225    9.7291769084    38.5859198785    S
C    9.9651036640    9.5195008274    37.342998513    S
C    10.6656187466    8.7878274577    36.188638949    S
C    11.6957930221    7.8562295653    36.782129271200006    S
C    11.7605788064    6.4907775330    36.512848604400006    S
C    12.4531816836    5.8093601625    37.6165874239    S
C    12.0614456683    4.5398816141    38.0227574732    S
C    10.9587844354    3.8532473183    37.3403667623    S
C    10.2144420780    3.1105801448    38.3347074746    S
C    8.8188706171    3.0159807949    38.2339792601    S
C    8.1322027218    3.6536667125    37.127845536    S
C    6.8861240501    4.1995941511    37.629996454    S
C    6.4301094857    5.4341537328    37.1490484916    S
C    5.8661707646    6.4031663988    38.070156466200004    S
C    6.2896921293    7.7265511031    37.6446232286    S
C    7.1104475906    7.5886519270    36.4640707226    S
C    7.1924004296    6.1577169086    36.147720980900004    S
C    8.3912468880    5.6416611104    35.669325622500004    S
C    8.8650461023    4.3625803658    36.1668968169    S
C    10.2992735124    4.4670308723    36.2826200687    S
C    10.6806754760    5.8178296570    35.8436659841    S
C    9.5399858170    6.5132276853    35.4477847307    S
C    9.4289396314    8.0189167086    35.431945342000006    S
C    8.2032276377    8.4166071676    36.260600325700004    S
C    8.5398623776    9.3935589813    37.252143889500005    S
C    7.7237751902    9.5646469399    38.3959899052    S
C    6.5758746231    8.7136162666    38.5947625882    S
C    6.4770272505    8.4078240672    40.0090813819    S
C    7.5703284419    9.0890563021    40.685743069    S
C    8.3311989253    9.8072940538    39.6809783468    S
C    9.7268615944    9.8675819836    39.769819515100004    S
H    9.0755289416    7.9236434811    33.2444912614    S
H    8.6644841553    9.4679996983    33.998987847500004    S
S    9.1808250142    5.4489584961    28.370207364800002    S
H    10.8059153341    10.7603833492    35.2635349823    S
H    12.3301221552    9.8660617543    35.190521942000004    S
H    10.6991706610    10.0736183592    33.024076613300004    S
Au    8.76000   6.74345  45.55259 R0
Au    0.000000    0.000000    47.93676    R0
Au    8.760000    0.000000    47.93676    R0
Au    4.380000    7.586382    47.93676    R0
Au    13.140000    7.586382    47.93676    R0
Au    2.920000    0.000000    47.93676    R0
Au    11.680000    0.000000    47.93676    R0
Au    7.300000    7.586382    47.93676    R0
Au    16.059999    7.586382    47.93676    R0
Au    5.840000    0.000000    47.93676    R0
Au    14.600000    0.000000    47.93676    R0
Au    10.220000    7.586382    47.93676    R0
Au    18.980000    7.586382    47.93676    R0
Au    1.460000    2.528794    47.93676    R0
Au    10.220000    2.528794    47.93676    R0
Au    5.840000    10.115176    47.93676    R0
Au    14.600000    10.115176    47.93676    R0
Au    4.380000    2.528794    47.93676    R0
Au    13.140000    2.528794    47.93676    R0
Au    8.760000    10.115176    47.93676    R0
Au    17.520000    10.115176    47.93676    R0
Au    7.300000    2.528794    47.93676    R0
Au    16.059999    2.528794    47.93676    R0
Au    11.680000    10.115176    47.93676    R0
Au    20.440001    10.115176    47.93676    R0
Au    2.920000    5.057588    47.93676    R0
Au    11.680000    5.057588    47.93676    R0
Au    5.840000    5.057588    47.93676    R0
Au    14.600000    5.057588    47.93676    R0
Au    8.760000    5.057588    47.93676    R0
Au    17.520000    5.057588    47.93676    R0
Au    1.460000    0.842931    50.32093    R0
Au    10.220000    0.842931    50.32093    R0
Au    5.840000    8.429314    50.32093    R0
Au    14.600000    8.429314    50.32093    R0
Au    4.380000    0.842931    50.32093    R0
Au    13.140000    0.842931    50.32093    R0
Au    8.760000    8.429314    50.32093    R0
Au    17.520000    8.429314    50.32093    R0
Au    7.300000    0.842931    50.32093    R0
Au    16.059999    0.842931    50.32093    R0
Au    11.680000    8.429314    50.32093    R0
Au    20.440001    8.429314    50.32093    R0
Au    2.920000    3.371726    50.32093    R0
Au    11.680000    3.371726    50.32093    R0
Au    7.300000    10.958108    50.32093    R0
Au    16.059999    10.958108    50.32093    R0
Au    5.840000    3.371726    50.32093    R0
Au    14.600000    3.371726    50.32093    R0
Au    10.220000    10.958108    50.32093    R0
Au    18.980000    10.958108    50.32093    R0
Au    8.760000    3.371726    50.32093    R0
Au    17.520000    3.371726    50.32093    R0
Au    13.140000    10.958108    50.32093    R0
Au    21.900000    10.958108    50.32093    R0
Au    4.380000    5.900520    50.32093    R0
Au    13.140000    5.900520    50.32093    R0
Au    7.300000    5.900520    50.32093    R0
Au    16.059999    5.900520    50.32093    R0
Au    10.220000    5.900520    50.32093    R0
Au    18.980000    5.900520    50.32093    R0
Au    0.000000    1.685863    52.7051    R0
Au    8.760000    1.685863    52.7051    R0
Au    4.380000    9.272245    52.7051    R0
Au    13.140000    9.272245    52.7051    R0
Au    2.920000    1.685863    52.7051    R0
Au    11.680000    1.685863    52.7051    R0
Au    7.300000    9.272245    52.7051    R0
Au    16.059999    9.272245    52.7051    R0
Au    5.840000    1.685863    52.7051    R0
Au    14.600000    1.685863    52.7051    R0
Au    10.220000    9.272245    52.7051    R0
Au    18.980000    9.272245    52.7051    R0
Au    1.460000    4.214657    52.7051    R0
Au    10.220000    4.214657    52.7051    R0
Au    5.840000    11.801040    52.7051    R0
Au    14.600000    11.801040    52.7051    R0
Au    4.380000    4.214657    52.7051    R0
Au    13.140000    4.214657    52.7051    R0
Au    8.760000    11.801040    52.7051    R0
Au    17.520000    11.801040    52.7051    R0
Au    7.300000    4.214657    52.7051    R0
Au    16.059999    4.214657    52.7051    R0
Au    11.680000    11.801040    52.7051    R0
Au    20.440001    11.801040    52.7051    R0
Au    2.920000    6.743451    52.7051    R0
Au    11.680000    6.743451    52.7051    R0
Au    5.840000    6.743451    52.7051    R0
Au    14.600000    6.743451    52.7051    R0
Au    8.760000    6.743451    52.7051    R0
Au    17.520000    6.743451    52.7051    R0
Au    0.000000    0.000000    55.08927    R1
Au    8.760000    0.000000    55.08927    R1
Au    4.380000    7.586382    55.08927    R1
Au    13.140000    7.586382    55.08927    R1
Au    2.920000    0.000000    55.08927    R1
Au    11.680000    0.000000    55.08927    R1
Au    7.300000    7.586382    55.08927    R1
Au    16.059999    7.586382    55.08927    R1
Au    5.840000    0.000000    55.08927    R1
Au    14.600000    0.000000    55.08927    R1
Au    10.220000    7.586382    55.08927    R1
Au    18.980000    7.586382    55.08927    R1
Au    1.460000    2.528794    55.08927    R1
Au    10.220000    2.528794    55.08927    R1
Au    5.840000    10.115176    55.08927    R1
Au    14.600000    10.115176    55.08927    R1
Au    4.380000    2.528794    55.08927    R1
Au    13.140000    2.528794    55.08927    R1
Au    8.760000    10.115176    55.08927    R1
Au    17.520000    10.115176    55.08927    R1
Au    7.300000    2.528794    55.08927    R1
Au    16.059999    2.528794    55.08927    R1
Au    11.680000    10.115176    55.08927    R1
Au    20.440001    10.115176    55.08927    R1
Au    2.920000    5.057588    55.08927    R1
Au    11.680000    5.057588    55.08927    R1
Au    5.840000    5.057588    55.08927    R1
Au    14.600000    5.057588    55.08927    R1
Au    8.760000    5.057588    55.08927    R1
Au    17.520000    5.057588    55.08927    R1
Au    1.460000    0.842931    57.47344    R1
Au    10.220000    0.842931    57.47344    R1
Au    5.840000    8.429314    57.47344    R1
Au    14.600000    8.429314    57.47344    R1
Au    4.380000    0.842931    57.47344    R1
Au    13.140000    0.842931    57.47344    R1
Au    8.760000    8.429314    57.47344    R1
Au    17.520000    8.429314    57.47344    R1
Au    7.300000    0.842931    57.47344    R1
Au    16.059999    0.842931    57.47344    R1
Au    11.680000    8.429314    57.47344    R1
Au    20.440001    8.429314    57.47344    R1
Au    2.920000    3.371726    57.47344    R1
Au    11.680000    3.371726    57.47344    R1
Au    7.300000    10.958108    57.47344    R1
Au    16.059999    10.958108    57.47344    R1
Au    5.840000    3.371726    57.47344    R1
Au    14.600000    3.371726    57.47344    R1
Au    10.220000    10.958108    57.47344    R1
Au    18.980000    10.958108    57.47344    R1
Au    8.760000    3.371726    57.47344    R1
Au    17.520000    3.371726    57.47344    R1
Au    13.140000    10.958108    57.47344    R1
Au    21.900000    10.958108    57.47344    R1
Au    4.380000    5.900520    57.47344    R1
Au    13.140000    5.900520    57.47344    R1
Au    7.300000    5.900520    57.47344    R1
Au    16.059999    5.900520    57.47344    R1
Au    10.220000    5.900520    57.47344    R1
Au    18.980000    5.900520    57.47344    R1
Au    0.000000    1.685863    59.85761    R1
Au    8.760000    1.685863    59.85761    R1
Au    4.380000    9.272245    59.85761    R1
Au    13.140000    9.272245    59.85761    R1
Au    2.920000    1.685863    59.85761    R1
Au    11.680000    1.685863    59.85761    R1
Au    7.300000    9.272245    59.85761    R1
Au    16.059999    9.272245    59.85761    R1
Au    5.840000    1.685863    59.85761    R1