     263
 i =       74, E =     -6430.5478808597
 Au         0.0000000000        0.0000000000        0.0000000000
 Au         8.7600000000        0.0000000000        0.0000000000
 Au         4.3800000000        7.5863820000        0.0000000000
 Au        13.1400000000        7.5863820000        0.0000000000
 Au         2.9200000000        0.0000000000        0.0000000000
 Au        11.6800000000        0.0000000000        0.0000000000
 Au         7.3000000000        7.5863820000        0.0000000000
 Au        16.0599990000        7.5863820000        0.0000000000
 Au         5.8400000000        0.0000000000        0.0000000000
 Au        14.6000000000        0.0000000000        0.0000000000
 Au        10.2200000000        7.5863820000        0.0000000000
 Au        18.9800000000        7.5863820000        0.0000000000
 Au         1.4600000000        2.5287940000        0.0000000000
 Au        10.2200000000        2.5287940000        0.0000000000
 Au         5.8400000000       10.1151760000        0.0000000000
 Au        14.6000000000       10.1151760000        0.0000000000
 Au         4.3800000000        2.5287940000        0.0000000000
 Au        13.1400000000        2.5287940000        0.0000000000
 Au         8.7600000000       10.1151760000        0.0000000000
 Au        17.5200000000       10.1151760000        0.0000000000
 Au         7.3000000000        2.5287940000        0.0000000000
 Au        16.0599990000        2.5287940000        0.0000000000
 Au        11.6800000000       10.1151760000        0.0000000000
 Au        20.4400010000       10.1151760000        0.0000000000
 Au         2.9200000000        5.0575880000        0.0000000000
 Au        11.6800000000        5.0575880000        0.0000000000
 Au         5.8400000000        5.0575880000        0.0000000000
 Au        14.6000000000        5.0575880000        0.0000000000
 Au         8.7600000000        5.0575880000        0.0000000000
 Au        17.5200000000        5.0575880000        0.0000000000
 Au         1.4600000000        0.8429310000        2.3841700000
 Au        10.2200000000        0.8429310000        2.3841700000
 Au         5.8400000000        8.4293140000        2.3841700000
 Au        14.6000000000        8.4293140000        2.3841700000
 Au         4.3800000000        0.8429310000        2.3841700000
 Au        13.1400000000        0.8429310000        2.3841700000
 Au         8.7600000000        8.4293140000        2.3841700000
 Au        17.5200000000        8.4293140000        2.3841700000
 Au         7.3000000000        0.8429310000        2.3841700000
 Au        16.0599990000        0.8429310000        2.3841700000
 Au        11.6800000000        8.4293140000        2.3841700000
 Au        20.4400010000        8.4293140000        2.3841700000
 Au         2.9200000000        3.3717260000        2.3841700000
 Au        11.6800000000        3.3717260000        2.3841700000
 Au         7.3000000000       10.9581080000        2.3841700000
 Au        16.0599990000       10.9581080000        2.3841700000
 Au         5.8400000000        3.3717260000        2.3841700000
 Au        14.6000000000        3.3717260000        2.3841700000
 Au        10.2200000000       10.9581080000        2.3841700000
 Au        18.9800000000       10.9581080000        2.3841700000
 Au         8.7600000000        3.3717260000        2.3841700000
 Au        17.5200000000        3.3717260000        2.3841700000
 Au        13.1400000000       10.9581080000        2.3841700000
 Au        21.9000000000       10.9581080000        2.3841700000
 Au         4.3800000000        5.9005200000        2.3841700000
 Au        13.1400000000        5.9005200000        2.3841700000
 Au         7.3000000000        5.9005200000        2.3841700000
 Au        16.0599990000        5.9005200000        2.3841700000
 Au        10.2200000000        5.9005200000        2.3841700000
 Au        18.9800000000        5.9005200000        2.3841700000
 Au         0.0000000000        1.6858630000        4.7683400000
 Au         8.7600000000        1.6858630000        4.7683400000
 Au         4.3800000000        9.2722450000        4.7683400000
 Au        13.1400000000        9.2722450000        4.7683400000
 Au         2.9200000000        1.6858630000        4.7683400000
 Au        11.6800000000        1.6858630000        4.7683400000
 Au         7.3000000000        9.2722450000        4.7683400000
 Au        16.0599990000        9.2722450000        4.7683400000
 Au         5.8400000000        1.6858630000        4.7683400000
 Au        14.6000000000        1.6858630000        4.7683400000
 Au        10.2200000000        9.2722450000        4.7683400000
 Au        18.9800000000        9.2722450000        4.7683400000
 Au         1.4600000000        4.2146570000        4.7683400000
 Au        10.2200000000        4.2146570000        4.7683400000
 Au         5.8400000000       11.8010400000        4.7683400000
 Au        14.6000000000       11.8010400000        4.7683400000
 Au         4.3800000000        4.2146570000        4.7683400000
 Au        13.1400000000        4.2146570000        4.7683400000
 Au         8.7600000000       11.8010400000        4.7683400000
 Au        17.5200000000       11.8010400000        4.7683400000
 Au         7.3000000000        4.2146570000        4.7683400000
 Au        16.0599990000        4.2146570000        4.7683400000
 Au        11.6800000000       11.8010400000        4.7683400000
 Au        20.4400010000       11.8010400000        4.7683400000
 Au         2.9200000000        6.7434510000        4.7683400000
 Au        11.6800000000        6.7434510000        4.7683400000
 Au         5.8400000000        6.7434510000        4.7683400000
 Au        14.6000000000        6.7434510000        4.7683400000
 Au         8.7600000000        6.7434510000        4.7683400000
 Au        17.5200000000        6.7434510000        4.7683400000
  H        10.7010364449        5.1575668045       11.4897420135
  C        10.5934871916        5.8111957365       10.6216237905
  C        10.9278520004        7.1693374205       10.7328187028
  C        10.7983189231        7.9715663208        9.5846138621
  H        11.0740494426        9.0275269784        9.6278201423
  C        10.3116798756        7.4563223747        8.3847679884
  H        10.1950672180        8.1055909631        7.5153487146
  C         9.9470652210        6.1026102859        8.2992820397
  C        10.1181473507        5.2761449994        9.4254989264
  H         9.8549578532        4.2198525241        9.3650858313
  C        11.3847076778        7.7590938698       12.0483992617
  C        10.3831020808        8.7783233302       12.6454791825
  H        10.2263339996        9.5618794640       11.8869773674
  H        12.3458254386        8.2800238651       11.9028939067
  H        11.5771274600        6.9485616079       12.7674601916
  C        10.8773673137        9.4378263923       13.9461359555
  C         9.0178500121        8.1815463628       13.0278950497
  C         8.1097982433        8.8676685607       20.7937126941
  C         7.7253032572        7.6120695457       21.3924059767
  C         8.9369506519        6.9358907685       21.9008579375
  C        10.0811179365        7.7810945028       21.4794656707
  C         9.5588733610        8.9688295469       20.8393857263
  C        10.2531063516        9.5561863691       19.7733897259
  C        11.4934205196        8.9767759522       19.3012305996
  C        11.9904175987        7.8188984498       19.9126003136
  C        11.2618284232        7.2079594585       21.0109829770
  C        11.3686985714        5.7616315386       20.8607904486
  C        10.2830294369        4.9403563960       21.1800024968
  C         9.0465018450        5.5225229233       21.6619763505
  C         7.9458569847        4.7735122969       21.1017894996
  C         6.7776002244        5.4335780101       20.7015045724
  C         6.6670528681        6.8738982536       20.8455447945
  C         5.9403380714        7.3833995058       19.7004513665
  C         5.6012407449        6.2558946962       18.8464436640
  C         6.1107436553        5.0468140739       19.4706234832
  C         6.6395551691        4.0229335812       18.6792123112
  C         7.8563107171        3.3390885351       19.0919627055
  C         8.4961211661        3.7088753415       20.2772953501
  C         9.9427877469        3.8154547380       20.3233895861
  C        10.6976186787        3.5581931985       19.1762037481
  C        11.8245569155        4.4134794425       18.8440337702
  C        12.1614554036        5.4912390611       19.6774257808
  C        12.5442421923        6.7600102232       19.0907875104
  C        12.5764011136        6.9044855197       17.6986808256
  C        12.0573914662        8.1038992294       17.0656898605
  C        11.5378916898        9.1215531329       17.8566586031
  C        10.3005141152        9.7858970759       17.4312669335
  C         9.6826628623        9.4312597205       16.2411795332
  C        10.3516081340        8.5800324443       15.1520568863
  C        11.4109000159        7.7295322442       15.8126242632
  C        11.4822017492        6.3421432110       15.6973680714
  C        12.2156784514        5.7962338771       16.8472612217
  C        11.8527984924        4.5771442679       17.4078648061
  C        10.7369441084        3.8090478496       16.8444607991
  C        10.0337149132        3.1784515603       17.9409773900
  C         8.6368388883        3.0627710083       17.8993646386
  C         7.9067848786        3.5676925993       16.7532174652
  C         6.6729147281        4.1588191820       17.2337271128
  C         6.1894518000        5.3292184886       16.6320209092
  C         5.6468129216        6.3931023481       17.4567192725
  C         6.0402420686        7.6625280172       16.8687993420
  C         6.8222480515        7.3963033299       15.6841637563
  C         6.9083314066        5.9384327689       15.5294764121
  C         8.0963905643        5.3802647707       15.0719079660
  C         8.5997072265        4.1689122224       15.6947271731
  C        10.0358392984        4.2957901086       15.7484017173
  C        10.3880659385        5.5902561057       15.1448070307
  C         9.2276597131        6.2285112379       14.7123864427
  C         9.1006180946        7.7218954070       14.5262826132
  C         7.8984268101        8.2030818271       15.3479944478
  C         8.2566463873        9.2873970321       16.2128340185
  C         7.4775862668        9.5824163492       17.3571440679
  C         6.3451283756        8.7540421436       17.6900834546
  C         6.2973877095        8.6106045039       19.1325892865
  C         7.4053914883        9.3675669752       19.6895623319
  C         8.1248771292        9.9710335499       18.5862768145
  C         9.5219050981       10.0497052222       18.6204953699
  H         8.7128572322        7.3568059501       12.3706718618
  H         8.2423379283        8.9574582275       12.9491935830
  S         9.1055115052        5.3762329611        6.9145568279
  H        10.4506060818       10.4481259063       14.0317127606
  H        11.9699916182        9.5456955885       13.9821694979
 Au         8.7899945788        6.7570718366       24.1453062823
 Au         0.0000000000        0.0000000000       26.4546994069
 Au         8.7600000000        0.0000000000       26.4546994069
 Au         4.3800000000        7.5863820000       26.4546994069
 Au        13.1400000000        7.5863820000       26.4546994069
 Au         2.9200000000        0.0000000000       26.4546994069
 Au        11.6800000000        0.0000000000       26.4546994069
 Au         7.3000000000        7.5863820000       26.4546994069
 Au        16.0599990000        7.5863820000       26.4546994069
 Au         5.8400000000        0.0000000000       26.4546994069
 Au        14.6000000000        0.0000000000       26.4546994069
 Au        10.2200000000        7.5863820000       26.4546994069
 Au        18.9800000000        7.5863820000       26.4546994069
 Au         1.4600000000        2.5287940000       26.4546994069
 Au        10.2200000000        2.5287940000       26.4546994069
 Au         5.8400000000       10.1151760000       26.4546994069
 Au        14.6000000000       10.1151760000       26.4546994069
 Au         4.3800000000        2.5287940000       26.4546994069
 Au        13.1400000000        2.5287940000       26.4546994069
 Au         8.7600000000       10.1151760000       26.4546994069
 Au        17.5200000000       10.1151760000       26.4546994069
 Au         7.3000000000        2.5287940000       26.4546994069
 Au        16.0599990000        2.5287940000       26.4546994069
 Au        11.6800000000       10.1151760000       26.4546994069
 Au        20.4400010000       10.1151760000       26.4546994069
 Au         2.9200000000        5.0575880000       26.4546994069
 Au        11.6800000000        5.0575880000       26.4546994069
 Au         5.8400000000        5.0575880000       26.4546994069
 Au        14.6000000000        5.0575880000       26.4546994069
 Au         8.7600000000        5.0575880000       26.4546994069
 Au        17.5200000000        5.0575880000       26.4546994069
 Au         1.4600000000        0.8429310000       28.8388694069
 Au        10.2200000000        0.8429310000       28.8388694069
 Au         5.8400000000        8.4293140000       28.8388694069
 Au        14.6000000000        8.4293140000       28.8388694069
 Au         4.3800000000        0.8429310000       28.8388694069
 Au        13.1400000000        0.8429310000       28.8388694069
 Au         8.7600000000        8.4293140000       28.8388694069
 Au        17.5200000000        8.4293140000       28.8388694069
 Au         7.3000000000        0.8429310000       28.8388694069
 Au        16.0599990000        0.8429310000       28.8388694069
 Au        11.6800000000        8.4293140000       28.8388694069
 Au        20.4400010000        8.4293140000       28.8388694069
 Au         2.9200000000        3.3717260000       28.8388694069
 Au        11.6800000000        3.3717260000       28.8388694069
 Au         7.3000000000       10.9581080000       28.8388694069
 Au        16.0599990000       10.9581080000       28.8388694069
 Au         5.8400000000        3.3717260000       28.8388694069
 Au        14.6000000000        3.3717260000       28.8388694069
 Au        10.2200000000       10.9581080000       28.8388694069
 Au        18.9800000000       10.9581080000       28.8388694069
 Au         8.7600000000        3.3717260000       28.8388694069
 Au        17.5200000000        3.3717260000       28.8388694069
 Au        13.1400000000       10.9581080000       28.8388694069
 Au        21.9000000000       10.9581080000       28.8388694069
 Au         4.3800000000        5.9005200000       28.8388694069
 Au        13.1400000000        5.9005200000       28.8388694069
 Au         7.3000000000        5.9005200000       28.8388694069
 Au        16.0599990000        5.9005200000       28.8388694069
 Au        10.2200000000        5.9005200000       28.8388694069
 Au        18.9800000000        5.9005200000       28.8388694069
 Au         0.0000000000        1.6858630000       31.2230394069
 Au         8.7600000000        1.6858630000       31.2230394069
 Au         4.3800000000        9.2722450000       31.2230394069
 Au        13.1400000000        9.2722450000       31.2230394069
 Au         2.9200000000        1.6858630000       31.2230394069
 Au        11.6800000000        1.6858630000       31.2230394069
 Au         7.3000000000        9.2722450000       31.2230394069
 Au        16.0599990000        9.2722450000       31.2230394069
 Au         5.8400000000        1.6858630000       31.2230394069
 Au        14.6000000000        1.6858630000       31.2230394069
 Au        10.2200000000        9.2722450000       31.2230394069
 Au        18.9800000000        9.2722450000       31.2230394069
 Au         1.4600000000        4.2146570000       31.2230394069
 Au        10.2200000000        4.2146570000       31.2230394069
 Au         5.8400000000       11.8010400000       31.2230394069
 Au        14.6000000000       11.8010400000       31.2230394069
 Au         4.3800000000        4.2146570000       31.2230394069
 Au        13.1400000000        4.2146570000       31.2230394069
 Au         8.7600000000       11.8010400000       31.2230394069
 Au        17.5200000000       11.8010400000       31.2230394069
 Au         7.3000000000        4.2146570000       31.2230394069
 Au        16.0599990000        4.2146570000       31.2230394069
 Au        11.6800000000       11.8010400000       31.2230394069
 Au        20.4400010000       11.8010400000       31.2230394069
 Au         2.9200000000        6.7434510000       31.2230394069
 Au        11.6800000000        6.7434510000       31.2230394069
 Au         5.8400000000        6.7434510000       31.2230394069
 Au        14.6000000000        6.7434510000       31.2230394069
 Au         8.7600000000        6.7434510000       31.2230394069
 Au        17.5200000000        6.7434510000       31.2230394069
 Au    0.000000    0.000000    55.08927    R1
Au    8.760000    0.000000    55.08927    R1
Au    4.380000    7.586382    55.08927    R1
Au    13.140000    7.586382    55.08927    R1
Au    2.920000    0.000000    55.08927    R1
Au    11.680000    0.000000    55.08927    R1
Au    7.300000    7.586382    55.08927    R1
Au    16.059999    7.586382    55.08927    R1
Au    5.840000    0.000000    55.08927    R1
Au    14.600000    0.000000    55.08927    R1
Au    10.220000    7.586382    55.08927    R1
Au    18.980000    7.586382    55.08927    R1
Au    1.460000    2.528794    55.08927    R1
Au    10.220000    2.528794    55.08927    R1
Au    5.840000    10.115176    55.08927    R1
Au    14.600000    10.115176    55.08927    R1
Au    4.380000    2.528794    55.08927    R1
Au    13.140000    2.528794    55.08927    R1
Au    8.760000    10.115176    55.08927    R1
Au    17.520000    10.115176    55.08927    R1
Au    7.300000    2.528794    55.08927    R1
Au    16.059999    2.528794    55.08927    R1
Au    11.680000    10.115176    55.08927    R1
Au    20.440001    10.115176    55.08927    R1
Au    2.920000    5.057588    55.08927    R1
Au    11.680000    5.057588    55.08927    R1
Au    5.840000    5.057588    55.08927    R1
Au    14.600000    5.057588    55.08927    R1
Au    8.760000    5.057588    55.08927    R1
Au    17.520000    5.057588    55.08927    R1
Au    1.460000    0.842931    57.47344    R1
Au    10.220000    0.842931    57.47344    R1
Au    5.840000    8.429314    57.47344    R1
Au    14.600000    8.429314    57.47344    R1
Au    4.380000    0.842931    57.47344    R1
Au    13.140000    0.842931    57.47344    R1
Au    8.760000    8.429314    57.47344    R1
Au    17.520000    8.429314    57.47344    R1
Au    7.300000    0.842931    57.47344    R1
Au    16.059999    0.842931    57.47344    R1
Au    11.680000    8.429314    57.47344    R1
Au    20.440001    8.429314    57.47344    R1
Au    2.920000    3.371726    57.47344    R1
Au    11.680000    3.371726    57.47344    R1
Au    7.300000    10.958108    57.47344    R1
Au    16.059999    10.958108    57.47344    R1
Au    5.840000    3.371726    57.47344    R1
Au    14.600000    3.371726    57.47344    R1
Au    10.220000    10.958108    57.47344    R1
Au    18.980000    10.958108    57.47344    R1
Au    8.760000    3.371726    57.47344    R1
Au    17.520000    3.371726    57.47344    R1
Au    13.140000    10.958108    57.47344    R1
Au    21.900000    10.958108    57.47344    R1
Au    4.380000    5.900520    57.47344    R1
Au    13.140000    5.900520    57.47344    R1
Au    7.300000    5.900520    57.47344    R1
Au    16.059999    5.900520    57.47344    R1
Au    10.220000    5.900520    57.47344    R1
Au    18.980000    5.900520    57.47344    R1
Au    0.000000    1.685863    59.85761    R1
Au    8.760000    1.685863    59.85761    R1
Au    4.380000    9.272245    59.85761    R1
Au    13.140000    9.272245    59.85761    R1
Au    2.920000    1.685863    59.85761    R1
Au    11.680000    1.685863    59.85761    R1
Au    7.300000    9.272245    59.85761    R1
Au    16.059999    9.272245    59.85761    R1
Au    5.840000    1.685863    59.85761    R1
Au    14.600000    1.685863    59.85761    R1
Au    10.220000    9.272245    59.85761    R1
Au    18.980000    9.272245    59.85761    R1
Au    1.460000    4.214657    59.85761    R1
Au    10.220000    4.214657    59.85761    R1
Au    5.840000    11.801040    59.85761    R1
Au    14.600000    11.801040    59.85761    R1
Au    4.380000    4.214657    59.85761    R1
Au    13.140000    4.214657    59.85761    R1
Au    8.760000    11.801040    59.85761    R1
Au    17.520000    11.801040    59.85761    R1
Au    7.300000    4.214657    59.85761    R1
Au    16.059999    4.214657    59.85761    R1
Au    11.680000    11.801040    59.85761    R1
Au    20.440001    11.801040    59.85761    R1
Au    2.920000    6.743451    59.85761    R1
Au    11.680000    6.743451    59.85761    R1
Au    5.840000    6.743451    59.85761    R1
Au    14.600000    6.743451    59.85761    R1
Au    8.760000    6.743451    59.85761    R1
Au    17.520000    6.743451    59.85761    R1
Au    0.000000    0.000000    62.241779    R2
Au    8.760000    0.000000    62.241779    R2
Au    4.380000    7.586382    62.241779    R2
Au    13.140000    7.586382    62.241779    R2
Au    2.920000    0.000000    62.241779    R2
Au    11.680000    0.000000    62.241779    R2
Au    7.300000    7.586382    62.241779    R2
Au    16.059999    7.586382    62.241779    R2
Au    5.840000    0.000000    62.241779    R2
Au    14.600000    0.000000    62.241779    R2
Au    10.220000    7.586382    62.241779    R2
Au    18.980000    7.586382    62.241779    R2
Au    1.460000    2.528794    62.241779    R2
Au    10.220000    2.528794    62.241779    R2
Au    5.840000    10.115176    62.241779    R2
Au    14.600000    10.115176    62.241779    R2
Au    4.380000    2.528794    62.241779    R2
Au    13.140000    2.528794    62.241779    R2
Au    8.760000    10.115176    62.241779    R2
Au    17.520000    10.115176    62.241779    R2
Au    7.300000    2.528794    62.241779    R2
Au    16.059999    2.528794    62.241779    R2
Au    11.680000    10.115176    62.241779    R2
Au    20.440001    10.115176    62.241779    R2
Au    2.920000    5.057588    62.241779    R2
Au    11.680000    5.057588    62.241779    R2
Au    5.840000    5.057588    62.241779    R2
Au    14.600000    5.057588    62.241779    R2
Au    8.760000    5.057588    62.241779    R2
Au    17.520000    5.057588    62.241779    R2
Au    1.460000    0.842931    64.62595    R2
Au    10.220000    0.842931    64.62595    R2
Au    5.840000    8.429314    64.62595    R2
Au    14.600000    8.429314    64.62595    R2
Au    4.380000    0.842931    64.62595    R2
Au    13.140000    0.842931    64.62595    R2
Au    8.760000    8.429314    64.62595    R2
Au    17.520000    8.429314    64.62595    R2
Au    7.300000    0.842931    64.62595    R2
Au    16.059999    0.842931    64.62595    R2
Au    11.680000    8.429314    64.62595    R2
Au    20.440001    8.429314    64.62595    R2
Au    2.920000    3.371726    64.62595    R2
Au    11.680000    3.371726    64.62595    R2
Au    7.300000    10.958108    64.62595    R2
Au    16.059999    10.958108    64.62595    R2
Au    5.840000    3.371726    64.62595    R2
Au    14.600000    3.371726    64.62595    R2
Au    10.220000    10.958108    64.62595    R2
Au    18.980000    10.958108    64.62595    R2
Au    8.760000    3.371726    64.62595    R2
Au    17.520000    3.371726    64.62595    R2
Au    13.140000    10.958108    64.62595    R2
Au    21.900000    10.958108    64.62595    R2
Au    4.380000    5.900520    64.62595    R2
Au    13.140000    5.900520    64.62595    R2
Au    7.300000    5.900520    64.62595    R2
Au    16.059999    5.900520    64.62595    R2
Au    10.220000    5.900520    64.62595    R2
Au    18.980000    5.900520    64.62595    R2
Au    0.000000    1.685863    67.01012    R2
Au    8.760000    1.685863    67.01012    R2
Au    4.380000    9.272245    67.01012    R2
Au    13.140000    9.272245    67.01012    R2
Au    2.920000    1.685863    67.01012    R2
Au    11.680000    1.685863    67.01012    R2
Au    7.300000    9.272245    67.01012    R2
Au    16.059999    9.272245    67.01012    R2
Au    5.840000    1.685863    67.01012    R2
Au    14.600000    1.685863    67.01012    R2
Au    10.220000    9.272245    67.01012    R2
Au    18.980000    9.272245    67.01012    R2
Au    1.460000    4.214657    67.01012    R2
Au    10.220000    4.214657    67.01012    R2
Au    5.840000    11.801040    67.01012    R2
Au    14.600000    11.801040    67.01012    R2
Au    4.380000    4.214657    67.01012    R2
Au    13.140000    4.214657    67.01012    R2
Au    8.760000    11.801040    67.01012    R2
Au    17.520000    11.801040    67.01012    R2
Au    7.300000    4.214657    67.01012    R2
Au    16.059999    4.214657    67.01012    R2
Au    11.680000    11.801040    67.01012    R2
Au    20.440001    11.801040    67.01012    R2
Au    2.920000    6.743451    67.01012    R2
Au    11.680000    6.743451    67.01012    R2
Au    5.840000    6.743451    67.01012    R2
Au    14.600000    6.743451    67.01012    R2
Au    8.760000    6.743451    67.01012    R2
Au    17.520000    6.743451    67.01012    R2
Au    0.000000    0.000000    69.394289    R3
Au    8.760000    0.000000    69.394289    R3
Au    4.380000    7.586382    69.394289    R3
Au    13.140000    7.586382    69.394289    R3
Au    2.920000    0.000000    69.394289    R3
Au    11.680000    0.000000    69.394289    R3
Au    7.300000    7.586382    69.394289    R3
Au    16.059999    7.586382    69.394289    R3
Au    5.840000    0.000000    69.394289    R3
Au    14.600000    0.000000    69.394289    R3
Au    10.220000    7.586382    69.394289    R3
Au    18.980000    7.586382    69.394289    R3
Au    1.460000    2.528794    69.394289    R3
Au    10.220000    2.528794    69.394289    R3
Au    5.840000    10.115176    69.394289    R3
Au    14.600000    10.115176    69.394289    R3
Au    4.380000    2.528794    69.394289    R3
Au    13.140000    2.528794    69.394289    R3
Au    8.760000    10.115176    69.394289    R3
Au    17.520000    10.115176    69.394289    R3
Au    7.300000    2.528794    69.394289    R3
Au    16.059999    2.528794    69.394289    R3
Au    11.680000    10.115176    69.394289    R3
Au    20.440001    10.115176    69.394289    R3
Au    2.920000    5.057588    69.394289    R3
Au    11.680000    5.057588    69.394289    R3
Au    5.840000    5.057588    69.394289    R3
Au    14.600000    5.057588    69.394289    R3
Au    8.760000    5.057588    69.394289    R3
Au    17.520000    5.057588    69.394289    R3
Au    1.460000    0.842931    71.77846    R3
Au    10.220000    0.842931    71.77846    R3
Au    5.840000    8.429314    71.77846    R3
Au    14.600000    8.429314    71.77846    R3
Au    4.380000    0.842931    71.77846    R3
Au    13.140000    0.842931    71.77846    R3
Au    8.760000    8.429314    71.77846    R3
Au    17.520000    8.429314    71.77846    R3
Au    7.300000    0.842931    71.77846    R3
Au    16.059999    0.842931    71.77846    R3
Au    11.680000    8.429314    71.77846    R3
Au    20.440001    8.429314    71.77846    R3
Au    2.920000    3.371726    71.77846    R3
Au    11.680000    3.371726    71.77846    R3
Au    7.300000    10.958108    71.77846    R3
Au    16.059999    10.958108    71.77846    R3
Au    5.840000    3.371726    71.77846    R3
Au    14.600000    3.371726    71.77846    R3
Au    10.220000    10.958108    71.77846    R3
Au    18.980000    10.958108    71.77846    R3
Au    8.760000    3.371726    71.77846    R3
Au    17.520000    3.371726    71.77846    R3
Au    13.140000    10.958108    71.77846    R3
Au    21.900000    10.958108    71.77846    R3
Au    4.380000    5.900520    71.77846    R3
Au    13.140000    5.900520    71.77846    R3
Au    7.300000    5.900520    71.77846    R3
Au    16.059999    5.900520    71.77846    R3
Au    10.220000    5.900520    71.77846    R3
Au    18.980000    5.900520    71.77846    R3
Au    0.000000    1.685863    74.16263000000001    R3
Au    8.760000    1.685863    74.16263000000001    R3
Au    4.380000    9.272245    74.16263000000001    R3
Au    13.140000    9.272245    74.16263000000001    R3
Au    2.920000    1.685863    74.16263000000001    R3
Au    11.680000    1.685863    74.16263000000001    R3
Au    7.300000    9.272245    74.16263000000001    R3
Au    16.059999    9.272245    74.16263000000001    R3
Au    5.840000    1.685863    74.16263000000001    R3
Au    14.600000    1.685863    74.16263000000001    R3
Au    10.220000    9.272245    74.16263000000001    R3
Au    18.980000    9.272245    74.16263000000001    R3
Au    1.460000    4.214657    74.16263000000001    R3
Au    10.220000    4.214657    74.16263000000001    R3
Au    5.840000    11.801040    74.16263000000001    R3
Au    14.600000    11.801040    74.16263000000001    R3
Au    4.380000    4.214657    74.16263000000001    R3
Au    13.140000    4.214657    74.16263000000001    R3
Au    8.760000    11.801040    74.16263000000001    R3
Au    17.520000    11.801040    74.16263000000001    R3
Au    7.300000    4.214657    74.16263000000001    R3
Au    16.059999    4.214657    74.16263000000001    R3
Au    11.680000    11.801040    74.16263000000001    R3
Au    20.440001    11.801040    74.16263000000001    R3
Au    2.920000    6.743451    74.16263000000001    R3
Au    11.680000    6.743451    74.16263000000001    R3
Au    5.840000    6.743451    74.16263000000001    R3
Au    14.600000    6.743451    74.16263000000001    R3
Au    8.760000    6.743451    74.16263000000001    R3
Au    17.520000    6.743451    74.16263000000001    R3
