     803
 i =       74, E =     -6430.5478808597
  Au    0.000000    0.000000    0.000000    L3
Au    8.760000    0.000000    0.000000    L3
Au    4.380000    7.586382    0.000000    L3
Au    13.140000    7.586382    0.000000    L3
Au    2.920000    0.000000    0.000000    L3
Au    11.680000    0.000000    0.000000    L3
Au    7.300000    7.586382    0.000000    L3
Au    16.059999    7.586382    0.000000    L3
Au    5.840000    0.000000    0.000000    L3
Au    14.600000    0.000000    0.000000    L3
Au    10.220000    7.586382    0.000000    L3
Au    18.980000    7.586382    0.000000    L3
Au    1.460000    2.528794    0.000000    L3
Au    10.220000    2.528794    0.000000    L3
Au    5.840000    10.115176    0.000000    L3
Au    14.600000    10.115176    0.000000    L3
Au    4.380000    2.528794    0.000000    L3
Au    13.140000    2.528794    0.000000    L3
Au    8.760000    10.115176    0.000000    L3
Au    17.520000    10.115176    0.000000    L3
Au    7.300000    2.528794    0.000000    L3
Au    16.059999    2.528794    0.000000    L3
Au    11.680000    10.115176    0.000000    L3
Au    20.440001    10.115176    0.000000    L3
Au    2.920000    5.057588    0.000000    L3
Au    11.680000    5.057588    0.000000    L3
Au    5.840000    5.057588    0.000000    L3
Au    14.600000    5.057588    0.000000    L3
Au    8.760000    5.057588    0.000000    L3
Au    17.520000    5.057588    0.000000    L3
Au    1.460000    0.842931    2.384170    L3
Au    10.220000    0.842931    2.384170    L3
Au    5.840000    8.429314    2.384170    L3
Au    14.600000    8.429314    2.384170    L3
Au    4.380000    0.842931    2.384170    L3
Au    13.140000    0.842931    2.384170    L3
Au    8.760000    8.429314    2.384170    L3
Au    17.520000    8.429314    2.384170    L3
Au    7.300000    0.842931    2.384170    L3
Au    16.059999    0.842931    2.384170    L3
Au    11.680000    8.429314    2.384170    L3
Au    20.440001    8.429314    2.384170    L3
Au    2.920000    3.371726    2.384170    L3
Au    11.680000    3.371726    2.384170    L3
Au    7.300000    10.958108    2.384170    L3
Au    16.059999    10.958108    2.384170    L3
Au    5.840000    3.371726    2.384170    L3
Au    14.600000    3.371726    2.384170    L3
Au    10.220000    10.958108    2.384170    L3
Au    18.980000    10.958108    2.384170    L3
Au    8.760000    3.371726    2.384170    L3
Au    17.520000    3.371726    2.384170    L3
Au    13.140000    10.958108    2.384170    L3
Au    21.900000    10.958108    2.384170    L3
Au    4.380000    5.900520    2.384170    L3
Au    13.140000    5.900520    2.384170    L3
Au    7.300000    5.900520    2.384170    L3
Au    16.059999    5.900520    2.384170    L3
Au    10.220000    5.900520    2.384170    L3
Au    18.980000    5.900520    2.384170    L3
Au    0.000000    1.685863    4.768340    L3
Au    8.760000    1.685863    4.768340    L3
Au    4.380000    9.272245    4.768340    L3
Au    13.140000    9.272245    4.768340    L3
Au    2.920000    1.685863    4.768340    L3
Au    11.680000    1.685863    4.768340    L3
Au    7.300000    9.272245    4.768340    L3
Au    16.059999    9.272245    4.768340    L3
Au    5.840000    1.685863    4.768340    L3
Au    14.600000    1.685863    4.768340    L3
Au    10.220000    9.272245    4.768340    L3
Au    18.980000    9.272245    4.768340    L3
Au    1.460000    4.214657    4.768340    L3
Au    10.220000    4.214657    4.768340    L3
Au    5.840000    11.801040    4.768340    L3
Au    14.600000    11.801040    4.768340    L3
Au    4.380000    4.214657    4.768340    L3
Au    13.140000    4.214657    4.768340    L3
Au    8.760000    11.801040    4.768340    L3
Au    17.520000    11.801040    4.768340    L3
Au    7.300000    4.214657    4.768340    L3
Au    16.059999    4.214657    4.768340    L3
Au    11.680000    11.801040    4.768340    L3
Au    20.440001    11.801040    4.768340    L3
Au    2.920000    6.743451    4.768340    L3
Au    11.680000    6.743451    4.768340    L3
Au    5.840000    6.743451    4.768340    L3
Au    14.600000    6.743451    4.768340    L3
Au    8.760000    6.743451    4.768340    L3
Au    17.520000    6.743451    4.768340    L3
Au    0.000000    0.000000    7.152510    L2
Au    8.760000    0.000000    7.152510    L2
Au    4.380000    7.586382    7.152510    L2
Au    13.140000    7.586382    7.152510    L2
Au    2.920000    0.000000    7.152510    L2
Au    11.680000    0.000000    7.152510    L2
Au    7.300000    7.586382    7.152510    L2
Au    16.059999    7.586382    7.152510    L2
Au    5.840000    0.000000    7.152510    L2
Au    14.600000    0.000000    7.152510    L2
Au    10.220000    7.586382    7.152510    L2
Au    18.980000    7.586382    7.152510    L2
Au    1.460000    2.528794    7.152510    L2
Au    10.220000    2.528794    7.152510    L2
Au    5.840000    10.115176    7.152510    L2
Au    14.600000    10.115176    7.152510    L2
Au    4.380000    2.528794    7.152510    L2
Au    13.140000    2.528794    7.152510    L2
Au    8.760000    10.115176    7.152510    L2
Au    17.520000    10.115176    7.152510    L2
Au    7.300000    2.528794    7.152510    L2
Au    16.059999    2.528794    7.152510    L2
Au    11.680000    10.115176    7.152510    L2
Au    20.440001    10.115176    7.152510    L2
Au    2.920000    5.057588    7.152510    L2
Au    11.680000    5.057588    7.152510    L2
Au    5.840000    5.057588    7.152510    L2
Au    14.600000    5.057588    7.152510    L2
Au    8.760000    5.057588    7.152510    L2
Au    17.520000    5.057588    7.152510    L2
Au    1.460000    0.842931    9.536680    L2
Au    10.220000    0.842931    9.536680    L2
Au    5.840000    8.429314    9.536680    L2
Au    14.600000    8.429314    9.536680    L2
Au    4.380000    0.842931    9.536680    L2
Au    13.140000    0.842931    9.536680    L2
Au    8.760000    8.429314    9.536680    L2
Au    17.520000    8.429314    9.536680    L2
Au    7.300000    0.842931    9.536680    L2
Au    16.059999    0.842931    9.536680    L2
Au    11.680000    8.429314    9.536680    L2
Au    20.440001    8.429314    9.536680    L2
Au    2.920000    3.371726    9.536680    L2
Au    11.680000    3.371726    9.536680    L2
Au    7.300000    10.958108    9.536680    L2
Au    16.059999    10.958108    9.536680    L2
Au    5.840000    3.371726    9.536680    L2
Au    14.600000    3.371726    9.536680    L2
Au    10.220000    10.958108    9.536680    L2
Au    18.980000    10.958108    9.536680    L2
Au    8.760000    3.371726    9.536680    L2
Au    17.520000    3.371726    9.536680    L2
Au    13.140000    10.958108    9.536680    L2
Au    21.900000    10.958108    9.536680    L2
Au    4.380000    5.900520    9.536680    L2
Au    13.140000    5.900520    9.536680    L2
Au    7.300000    5.900520    9.536680    L2
Au    16.059999    5.900520    9.536680    L2
Au    10.220000    5.900520    9.536680    L2
Au    18.980000    5.900520    9.536680    L2
Au    0.000000    1.685863    11.920850    L2
Au    8.760000    1.685863    11.920850    L2
Au    4.380000    9.272245    11.920850    L2
Au    13.140000    9.272245    11.920850    L2
Au    2.920000    1.685863    11.920850    L2
Au    11.680000    1.685863    11.920850    L2
Au    7.300000    9.272245    11.920850    L2
Au    16.059999    9.272245    11.920850    L2
Au    5.840000    1.685863    11.920850    L2
Au    14.600000    1.685863    11.920850    L2
Au    10.220000    9.272245    11.920850    L2
Au    18.980000    9.272245    11.920850    L2
Au    1.460000    4.214657    11.920850    L2
Au    10.220000    4.214657    11.920850    L2
Au    5.840000    11.801040    11.920850    L2
Au    14.600000    11.801040    11.920850    L2
Au    4.380000    4.214657    11.920850    L2
Au    13.140000    4.214657    11.920850    L2
Au    8.760000    11.801040    11.920850    L2
Au    17.520000    11.801040    11.920850    L2
Au    7.300000    4.214657    11.920850    L2
Au    16.059999    4.214657    11.920850    L2
Au    11.680000    11.801040    11.920850    L2
Au    20.440001    11.801040    11.920850    L2
Au    2.920000    6.743451    11.920850    L2
Au    11.680000    6.743451    11.920850    L2
Au    5.840000    6.743451    11.920850    L2
Au    14.600000    6.743451    11.920850    L2
Au    8.760000    6.743451    11.920850    L2
Au    17.520000    6.743451    11.920850    L2
Au    0.000000    0.000000    14.305019    L1
Au    8.760000    0.000000    14.305019    L1
Au    4.380000    7.586382    14.305019    L1
Au    13.140000    7.586382    14.305019    L1
Au    2.920000    0.000000    14.305019    L1
Au    11.680000    0.000000    14.305019    L1
Au    7.300000    7.586382    14.305019    L1
Au    16.059999    7.586382    14.305019    L1
Au    5.840000    0.000000    14.305019    L1
Au    14.600000    0.000000    14.305019    L1
Au    10.220000    7.586382    14.305019    L1
Au    18.980000    7.586382    14.305019    L1
Au    1.460000    2.528794    14.305019    L1
Au    10.220000    2.528794    14.305019    L1
Au    5.840000    10.115176    14.305019    L1
Au    14.600000    10.115176    14.305019    L1
Au    4.380000    2.528794    14.305019    L1
Au    13.140000    2.528794    14.305019    L1
Au    8.760000    10.115176    14.305019    L1
Au    17.520000    10.115176    14.305019    L1
Au    7.300000    2.528794    14.305019    L1
Au    16.059999    2.528794    14.305019    L1
Au    11.680000    10.115176    14.305019    L1
Au    20.440001    10.115176    14.305019    L1
Au    2.920000    5.057588    14.305019    L1
Au    11.680000    5.057588    14.305019    L1
Au    5.840000    5.057588    14.305019    L1
Au    14.600000    5.057588    14.305019    L1
Au    8.760000    5.057588    14.305019    L1
Au    17.520000    5.057588    14.305019    L1
Au    1.460000    0.842931    16.689190    L1
Au    10.220000    0.842931    16.689190    L1
Au    5.840000    8.429314    16.689190    L1
Au    14.600000    8.429314    16.689190    L1
Au    4.380000    0.842931    16.689190    L1
Au    13.140000    0.842931    16.689190    L1
Au    8.760000    8.429314    16.689190    L1
Au    17.520000    8.429314    16.689190    L1
Au    7.300000    0.842931    16.689190    L1
Au    16.059999    0.842931    16.689190    L1
Au    11.680000    8.429314    16.689190    L1
Au    20.440001    8.429314    16.689190    L1
Au    2.920000    3.371726    16.689190    L1
Au    11.680000    3.371726    16.689190    L1
Au    7.300000    10.958108    16.689190    L1
Au    16.059999    10.958108    16.689190    L1
Au    5.840000    3.371726    16.689190    L1
Au    14.600000    3.371726    16.689190    L1
Au    10.220000    10.958108    16.689190    L1
Au    18.980000    10.958108    16.689190    L1
Au    8.760000    3.371726    16.689190    L1
Au    17.520000    3.371726    16.689190    L1
Au    13.140000    10.958108    16.689190    L1
Au    21.900000    10.958108    16.689190    L1
Au    4.380000    5.900520    16.689190    L1
Au    13.140000    5.900520    16.689190    L1
Au    7.300000    5.900520    16.689190    L1
Au    16.059999    5.900520    16.689190    L1
Au    10.220000    5.900520    16.689190    L1
Au    18.980000    5.900520    16.689190    L1
Au    0.000000    1.685863    19.073360    L1
Au    8.760000    1.685863    19.073360    L1
Au    4.380000    9.272245    19.073360    L1
Au    13.140000    9.272245    19.073360    L1
Au    2.920000    1.685863    19.073360    L1
Au    11.680000    1.685863    19.073360    L1
Au    7.300000    9.272245    19.073360    L1
Au    16.059999    9.272245    19.073360    L1
Au    5.840000    1.685863    19.073360    L1
Au    14.600000    1.685863    19.073360    L1
Au    10.220000    9.272245    19.073360    L1
Au    18.980000    9.272245    19.073360    L1
Au    1.460000    4.214657    19.073360    L1
Au    10.220000    4.214657    19.073360    L1
Au    5.840000    11.801040    19.073360    L1
Au    14.600000    11.801040    19.073360    L1
Au    4.380000    4.214657    19.073360    L1
Au    13.140000    4.214657    19.073360    L1
Au    8.760000    11.801040    19.073360    L1
Au    17.520000    11.801040    19.073360    L1
Au    7.300000    4.214657    19.073360    L1
Au    16.059999    4.214657    19.073360    L1
Au    11.680000    11.801040    19.073360    L1
Au    20.440001    11.801040    19.073360    L1
Au    2.920000    6.743451    19.073360    L1
Au    11.680000    6.743451    19.073360    L1
Au    5.840000    6.743451    19.073360    L1
Au    14.600000    6.743451    19.073360    L1
Au    8.760000    6.743451    19.073360    L1
Au    17.520000    6.743451    19.073360    L1
Au    0.0000000000    0.0000000000    21.457530000000002    L0
Au    8.7600000000    0.0000000000    21.457530000000002    L0
Au    4.3800000000    7.5863820000    21.457530000000002    L0
Au    13.1400000000    7.5863820000    21.457530000000002    L0
Au    2.9200000000    0.0000000000    21.457530000000002    L0
Au    11.6800000000    0.0000000000    21.457530000000002    L0
Au    7.3000000000    7.5863820000    21.457530000000002    L0
Au    16.0599990000    7.5863820000    21.457530000000002    L0
Au    5.8400000000    0.0000000000    21.457530000000002    L0
Au    14.6000000000    0.0000000000    21.457530000000002    L0
Au    10.2200000000    7.5863820000    21.457530000000002    L0
Au    18.9800000000    7.5863820000    21.457530000000002    L0
Au    1.4600000000    2.5287940000    21.457530000000002    L0
Au    10.2200000000    2.5287940000    21.457530000000002    L0
Au    5.8400000000    10.1151760000    21.457530000000002    L0
Au    14.6000000000    10.1151760000    21.457530000000002    L0
Au    4.3800000000    2.5287940000    21.457530000000002    L0
Au    13.1400000000    2.5287940000    21.457530000000002    L0
Au    8.7600000000    10.1151760000    21.457530000000002    L0
Au    17.5200000000    10.1151760000    21.457530000000002    L0
Au    7.3000000000    2.5287940000    21.457530000000002    L0
Au    16.0599990000    2.5287940000    21.457530000000002    L0
Au    11.6800000000    10.1151760000    21.457530000000002    L0
Au    20.4400010000    10.1151760000    21.457530000000002    L0
Au    2.9200000000    5.0575880000    21.457530000000002    L0
Au    11.6800000000    5.0575880000    21.457530000000002    L0
Au    5.8400000000    5.0575880000    21.457530000000002    L0
Au    14.6000000000    5.0575880000    21.457530000000002    L0
Au    8.7600000000    5.0575880000    21.457530000000002    L0
Au    17.5200000000    5.0575880000    21.457530000000002    L0
Au    1.4600000000    0.8429310000    23.841700000000003    L0
Au    10.2200000000    0.8429310000    23.841700000000003    L0
Au    5.8400000000    8.4293140000    23.841700000000003    L0
Au    14.6000000000    8.4293140000    23.841700000000003    L0
Au    4.3800000000    0.8429310000    23.841700000000003    L0
Au    13.1400000000    0.8429310000    23.841700000000003    L0
Au    8.7600000000    8.4293140000    23.841700000000003    L0
Au    17.5200000000    8.4293140000    23.841700000000003    L0
Au    7.3000000000    0.8429310000    23.841700000000003    L0
Au    16.0599990000    0.8429310000    23.841700000000003    L0
Au    11.6800000000    8.4293140000    23.841700000000003    L0
Au    20.4400010000    8.4293140000    23.841700000000003    L0
Au    2.9200000000    3.3717260000    23.841700000000003    L0
Au    11.6800000000    3.3717260000    23.841700000000003    L0
Au    7.3000000000    10.9581080000    23.841700000000003    L0
Au    16.0599990000    10.9581080000    23.841700000000003    L0
Au    5.8400000000    3.3717260000    23.841700000000003    L0
Au    14.6000000000    3.3717260000    23.841700000000003    L0
Au    10.2200000000    10.9581080000    23.841700000000003    L0
Au    18.9800000000    10.9581080000    23.841700000000003    L0
Au    8.7600000000    3.3717260000    23.841700000000003    L0
Au    17.5200000000    3.3717260000    23.841700000000003    L0
Au    13.1400000000    10.9581080000    23.841700000000003    L0
Au    21.9000000000    10.9581080000    23.841700000000003    L0
Au    4.3800000000    5.9005200000    23.841700000000003    L0
Au    13.1400000000    5.9005200000    23.841700000000003    L0
Au    7.3000000000    5.9005200000    23.841700000000003    L0
Au    16.0599990000    5.9005200000    23.841700000000003    L0
Au    10.2200000000    5.9005200000    23.841700000000003    L0
Au    18.9800000000    5.9005200000    23.841700000000003    L0
Au    0.0000000000    1.6858630000    26.22587    L0
Au    8.7600000000    1.6858630000    26.22587    L0
Au    4.3800000000    9.2722450000    26.22587    L0
Au    13.1400000000    9.2722450000    26.22587    L0
Au    2.9200000000    1.6858630000    26.22587    L0
Au    11.6800000000    1.6858630000    26.22587    L0
Au    7.3000000000    9.2722450000    26.22587    L0
Au    16.0599990000    9.2722450000    26.22587    L0
Au    5.8400000000    1.6858630000    26.22587    L0
Au    14.6000000000    1.6858630000    26.22587    L0
Au    10.2200000000    9.2722450000    26.22587    L0
Au    18.9800000000    9.2722450000    26.22587    L0
Au    1.4600000000    4.2146570000    26.22587    L0
Au    10.2200000000    4.2146570000    26.22587    L0
Au    5.8400000000    11.8010400000    26.22587    L0
Au    14.6000000000    11.8010400000    26.22587    L0
Au    4.3800000000    4.2146570000    26.22587    L0
Au    13.1400000000    4.2146570000    26.22587    L0
Au    8.7600000000    11.8010400000    26.22587    L0
Au    17.5200000000    11.8010400000    26.22587    L0
Au    7.3000000000    4.2146570000    26.22587    L0
Au    16.0599990000    4.2146570000    26.22587    L0
Au    11.6800000000    11.8010400000    26.22587    L0
Au    20.4400010000    11.8010400000    26.22587    L0
Au    2.9200000000    6.7434510000    26.22587    L0
Au    11.6800000000    6.7434510000    26.22587    L0
Au    5.8400000000    6.7434510000    26.22587    L0
Au    14.6000000000    6.7434510000    26.22587    L0
Au    8.7600000000    6.7434510000    26.22587    L0
Au    17.5200000000    6.7434510000    26.22587    L0
H    10.7010364449    5.1575668045    32.947272013500005    S
C    10.5934871916    5.8111957365    32.0791537905    S
C    10.9278520004    7.1693374205    32.1903487028    S
C    10.7983189231    7.9715663208    31.0421438621    S
H    11.0740494426    9.0275269784    31.0853501423    S
C    10.3116798756    7.4563223747    29.842297988400002    S
H    10.1950672180    8.1055909631    28.9728787146    S
C    9.9470652210    6.1026102859    29.7568120397    S
C    10.1181473507    5.2761449994    30.8830289264    S
H    9.8549578532    4.2198525241    30.822615831300002    S
C    11.3847076778    7.7590938698    33.505929261700004    S
C    10.3831020808    8.7783233302    34.1030091825    S
H    10.2263339996    9.5618794640    33.3445073674    S
H    12.3458254386    8.2800238651    33.3604239067    S
H    11.5771274600    6.9485616079    34.2249901916    S
C    10.8773673137    9.4378263923    35.4036659555    S
C    9.0178500121    8.1815463628    34.4854250497    S
C    8.1097982433    8.8676685607    42.2512426941    S
C    7.7253032572    7.6120695457    42.8499359767    S
C    8.9369506519    6.9358907685    43.3583879375    S
C    10.0811179365    7.7810945028    42.9369956707    S
C    9.5588733610    8.9688295469    42.2969157263    S
C    10.2531063516    9.5561863691    41.2309197259    S
C    11.4934205196    8.9767759522    40.7587605996    S
C    11.9904175987    7.8188984498    41.3701303136    S
C    11.2618284232    7.2079594585    42.468512977    S
C    11.3686985714    5.7616315386    42.318320448600005    S
C    10.2830294369    4.9403563960    42.637532496800006    S
C    9.0465018450    5.5225229233    43.119506350500004    S
C    7.9458569847    4.7735122969    42.5593194996    S
C    6.7776002244    5.4335780101    42.1590345724    S
C    6.6670528681    6.8738982536    42.303074794500006    S
C    5.9403380714    7.3833995058    41.1579813665    S
C    5.6012407449    6.2558946962    40.303973664    S
C    6.1107436553    5.0468140739    40.928153483200006    S
C    6.6395551691    4.0229335812    40.1367423112    S
C    7.8563107171    3.3390885351    40.5494927055    S
C    8.4961211661    3.7088753415    41.7348253501    S
C    9.9427877469    3.8154547380    41.7809195861    S
C    10.6976186787    3.5581931985    40.6337337481    S
C    11.8245569155    4.4134794425    40.301563770200005    S
C    12.1614554036    5.4912390611    41.1349557808    S
C    12.5442421923    6.7600102232    40.5483175104    S
C    12.5764011136    6.9044855197    39.1562108256    S
C    12.0573914662    8.1038992294    38.52321986050001    S
C    11.5378916898    9.1215531329    39.31418860310001    S
C    10.3005141152    9.7858970759    38.888796933500004    S
C    9.6826628623    9.4312597205    37.6987095332    S
C    10.3516081340    8.5800324443    36.6095868863    S
C    11.4109000159    7.7295322442    37.2701542632    S
C    11.4822017492    6.3421432110    37.1548980714    S
C    12.2156784514    5.7962338771    38.3047912217    S
C    11.8527984924    4.5771442679    38.8653948061    S
C    10.7369441084    3.8090478496    38.3019907991    S
C    10.0337149132    3.1784515603    39.398507390000006    S
C    8.6368388883    3.0627710083    39.356894638600004    S
C    7.9067848786    3.5676925993    38.2107474652    S
C    6.6729147281    4.1588191820    38.6912571128    S
C    6.1894518000    5.3292184886    38.0895509092    S
C    5.6468129216    6.3931023481    38.9142492725    S
C    6.0402420686    7.6625280172    38.326329342    S
C    6.8222480515    7.3963033299    37.1416937563    S
C    6.9083314066    5.9384327689    36.9870064121    S
C    8.0963905643    5.3802647707    36.529437966    S
C    8.5997072265    4.1689122224    37.152257173100004    S
C    10.0358392984    4.2957901086    37.205931717300004    S
C    10.3880659385    5.5902561057    36.6023370307    S
C    9.2276597131    6.2285112379    36.1699164427    S
C    9.1006180946    7.7218954070    35.9838126132    S
C    7.8984268101    8.2030818271    36.8055244478    S
C    8.2566463873    9.2873970321    37.6703640185    S
C    7.4775862668    9.5824163492    38.8146740679    S
C    6.3451283756    8.7540421436    39.147613454600005    S
C    6.2973877095    8.6106045039    40.5901192865    S
C    7.4053914883    9.3675669752    41.1470923319    S
C    8.1248771292    9.9710335499    40.0438068145    S
C    9.5219050981    10.0497052222    40.078025369900004    S
H    8.7128572322    7.3568059501    33.828201861800004    S
H    8.2423379283    8.9574582275    34.406723583    S
S    9.1055115052    5.3762329611    28.372086827900002    S
H    10.4506060818    10.4481259063    35.4892427606    S
H    11.9699916182    9.5456955885    35.4396994979    S
Au    8.7899945788    6.7570718366    45.602836282300004    R0
Au    0.0000000000    0.0000000000    47.9122294069    R0
Au    8.7600000000    0.0000000000    47.9122294069    R0
Au    4.3800000000    7.5863820000    47.9122294069    R0
Au    13.1400000000    7.5863820000    47.9122294069    R0
Au    2.9200000000    0.0000000000    47.9122294069    R0
Au    11.6800000000    0.0000000000    47.9122294069    R0
Au    7.3000000000    7.5863820000    47.9122294069    R0
Au    16.0599990000    7.5863820000    47.9122294069    R0
Au    5.8400000000    0.0000000000    47.9122294069    R0
Au    14.6000000000    0.0000000000    47.9122294069    R0
Au    10.2200000000    7.5863820000    47.9122294069    R0
Au    18.9800000000    7.5863820000    47.9122294069    R0
Au    1.4600000000    2.5287940000    47.9122294069    R0
Au    10.2200000000    2.5287940000    47.9122294069    R0
Au    5.8400000000    10.1151760000    47.9122294069    R0
Au    14.6000000000    10.1151760000    47.9122294069    R0
Au    4.3800000000    2.5287940000    47.9122294069    R0
Au    13.1400000000    2.5287940000    47.9122294069    R0
Au    8.7600000000    10.1151760000    47.9122294069    R0
Au    17.5200000000    10.1151760000    47.9122294069    R0
Au    7.3000000000    2.5287940000    47.9122294069    R0
Au    16.0599990000    2.5287940000    47.9122294069    R0
Au    11.6800000000    10.1151760000    47.9122294069    R0
Au    20.4400010000    10.1151760000    47.9122294069    R0
Au    2.9200000000    5.0575880000    47.9122294069    R0
Au    11.6800000000    5.0575880000    47.9122294069    R0
Au    5.8400000000    5.0575880000    47.9122294069    R0
Au    14.6000000000    5.0575880000    47.9122294069    R0
Au    8.7600000000    5.0575880000    47.9122294069    R0
Au    17.5200000000    5.0575880000    47.9122294069    R0
Au    1.4600000000    0.8429310000    50.2963994069    R0
Au    10.2200000000    0.8429310000    50.2963994069    R0
Au    5.8400000000    8.4293140000    50.2963994069    R0
Au    14.6000000000    8.4293140000    50.2963994069    R0
Au    4.3800000000    0.8429310000    50.2963994069    R0
Au    13.1400000000    0.8429310000    50.2963994069    R0
Au    8.7600000000    8.4293140000    50.2963994069    R0
Au    17.5200000000    8.4293140000    50.2963994069    R0
Au    7.3000000000    0.8429310000    50.2963994069    R0
Au    16.0599990000    0.8429310000    50.2963994069    R0
Au    11.6800000000    8.4293140000    50.2963994069    R0
Au    20.4400010000    8.4293140000    50.2963994069    R0
Au    2.9200000000    3.3717260000    50.2963994069    R0
Au    11.6800000000    3.3717260000    50.2963994069    R0
Au    7.3000000000    10.9581080000    50.2963994069    R0
Au    16.0599990000    10.9581080000    50.2963994069    R0
Au    5.8400000000    3.3717260000    50.2963994069    R0
Au    14.6000000000    3.3717260000    50.2963994069    R0
Au    10.2200000000    10.9581080000    50.2963994069    R0
Au    18.9800000000    10.9581080000    50.2963994069    R0
Au    8.7600000000    3.3717260000    50.2963994069    R0
Au    17.5200000000    3.3717260000    50.2963994069    R0
Au    13.1400000000    10.9581080000    50.2963994069    R0
Au    21.9000000000    10.9581080000    50.2963994069    R0
Au    4.3800000000    5.9005200000    50.2963994069    R0
Au    13.1400000000    5.9005200000    50.2963994069    R0
Au    7.3000000000    5.9005200000    50.2963994069    R0
Au    16.0599990000    5.9005200000    50.2963994069    R0
Au    10.2200000000    5.9005200000    50.2963994069    R0
Au    18.9800000000    5.9005200000    50.2963994069    R0
Au    0.0000000000    1.6858630000    52.680569406900005    R0
Au    8.7600000000    1.6858630000    52.680569406900005    R0
Au    4.3800000000    9.2722450000    52.680569406900005    R0
Au    13.1400000000    9.2722450000    52.680569406900005    R0
Au    2.9200000000    1.6858630000    52.680569406900005    R0
Au    11.6800000000    1.6858630000    52.680569406900005    R0
Au    7.3000000000    9.2722450000    52.680569406900005    R0
Au    16.0599990000    9.2722450000    52.680569406900005    R0
Au    5.8400000000    1.6858630000    52.680569406900005    R0
Au    14.6000000000    1.6858630000    52.680569406900005    R0
Au    10.2200000000    9.2722450000    52.680569406900005    R0
Au    18.9800000000    9.2722450000    52.680569406900005    R0
Au    1.4600000000    4.2146570000    52.680569406900005    R0
Au    10.2200000000    4.2146570000    52.680569406900005    R0
Au    5.8400000000    11.8010400000    52.680569406900005    R0
Au    14.6000000000    11.8010400000    52.680569406900005    R0
Au    4.3800000000    4.2146570000    52.680569406900005    R0
Au    13.1400000000    4.2146570000    52.680569406900005    R0
Au    8.7600000000    11.8010400000    52.680569406900005    R0
Au    17.5200000000    11.8010400000    52.680569406900005    R0
Au    7.3000000000    4.2146570000    52.680569406900005    R0
Au    16.0599990000    4.2146570000    52.680569406900005    R0
Au    11.6800000000    11.8010400000    52.680569406900005    R0
Au    20.4400010000    11.8010400000    52.680569406900005    R0
Au    2.9200000000    6.7434510000    52.680569406900005    R0
Au    11.6800000000    6.7434510000    52.680569406900005    R0
Au    5.8400000000    6.7434510000    52.680569406900005    R0
Au    14.6000000000    6.7434510000    52.680569406900005    R0
Au    8.7600000000    6.7434510000    52.680569406900005    R0
Au    17.5200000000    6.7434510000    52.680569406900005    R0
Au    0.000000    0.000000    55.0647394069    R1
Au    8.760000    0.000000    55.0647394069    R1
Au    4.380000    7.586382    55.0647394069    R1
Au    13.140000    7.586382    55.0647394069    R1
Au    2.920000    0.000000    55.0647394069    R1
Au    11.680000    0.000000    55.0647394069    R1
Au    7.300000    7.586382    55.0647394069    R1
Au    16.059999    7.586382    55.0647394069    R1
Au    5.840000    0.000000    55.0647394069    R1
Au    14.600000    0.000000    55.0647394069    R1
Au    10.220000    7.586382    55.0647394069    R1
Au    18.980000    7.586382    55.0647394069    R1
Au    1.460000    2.528794    55.0647394069    R1
Au    10.220000    2.528794    55.0647394069    R1
Au    5.840000    10.115176    55.0647394069    R1
Au    14.600000    10.115176    55.0647394069    R1
Au    4.380000    2.528794    55.0647394069    R1
Au    13.140000    2.528794    55.0647394069    R1
Au    8.760000    10.115176    55.0647394069    R1
Au    17.520000    10.115176    55.0647394069    R1
Au    7.300000    2.528794    55.0647394069    R1
Au    16.059999    2.528794    55.0647394069    R1
Au    11.680000    10.115176    55.0647394069    R1
Au    20.440001    10.115176    55.0647394069    R1
Au    2.920000    5.057588    55.0647394069    R1
Au    11.680000    5.057588    55.0647394069    R1
Au    5.840000    5.057588    55.0647394069    R1
Au    14.600000    5.057588    55.0647394069    R1
Au    8.760000    5.057588    55.0647394069    R1
Au    17.520000    5.057588    55.0647394069    R1
Au    1.460000    0.842931    57.4489094069    R1
Au    10.220000    0.842931    57.4489094069    R1
Au    5.840000    8.429314    57.4489094069    R1
Au    14.600000    8.429314    57.4489094069    R1
Au    4.380000    0.842931    57.4489094069    R1