     803
 i =       74, E =     -6430.5478808597
  Au    0.000000    0.000000    0.000000    L3
Au    8.760000    0.000000    0.000000    L3
Au    4.380000    7.586382    0.000000    L3
Au    13.140000    7.586382    0.000000    L3
Au    2.920000    0.000000    0.000000    L3
Au    11.680000    0.000000    0.000000    L3
Au    7.300000    7.586382    0.000000    L3
Au    16.059999    7.586382    0.000000    L3
Au    5.840000    0.000000    0.000000    L3
Au    14.600000    0.000000    0.000000    L3
Au    10.220000    7.586382    0.000000    L3
Au    18.980000    7.586382    0.000000    L3
Au    1.460000    2.528794    0.000000    L3
Au    10.220000    2.528794    0.000000    L3
Au    5.840000    10.115176    0.000000    L3
Au    14.600000    10.115176    0.000000    L3
Au    4.380000    2.528794    0.000000    L3
Au    13.140000    2.528794    0.000000    L3
Au    8.760000    10.115176    0.000000    L3
Au    17.520000    10.115176    0.000000    L3
Au    7.300000    2.528794    0.000000    L3
Au    16.059999    2.528794    0.000000    L3
Au    11.680000    10.115176    0.000000    L3
Au    20.440001    10.115176    0.000000    L3
Au    2.920000    5.057588    0.000000    L3
Au    11.680000    5.057588    0.000000    L3
Au    5.840000    5.057588    0.000000    L3
Au    14.600000    5.057588    0.000000    L3
Au    8.760000    5.057588    0.000000    L3
Au    17.520000    5.057588    0.000000    L3
Au    1.460000    0.842931    2.384170    L3
Au    10.220000    0.842931    2.384170    L3
Au    5.840000    8.429314    2.384170    L3
Au    14.600000    8.429314    2.384170    L3
Au    4.380000    0.842931    2.384170    L3
Au    13.140000    0.842931    2.384170    L3
Au    8.760000    8.429314    2.384170    L3
Au    17.520000    8.429314    2.384170    L3
Au    7.300000    0.842931    2.384170    L3
Au    16.059999    0.842931    2.384170    L3
Au    11.680000    8.429314    2.384170    L3
Au    20.440001    8.429314    2.384170    L3
Au    2.920000    3.371726    2.384170    L3
Au    11.680000    3.371726    2.384170    L3
Au    7.300000    10.958108    2.384170    L3
Au    16.059999    10.958108    2.384170    L3
Au    5.840000    3.371726    2.384170    L3
Au    14.600000    3.371726    2.384170    L3
Au    10.220000    10.958108    2.384170    L3
Au    18.980000    10.958108    2.384170    L3
Au    8.760000    3.371726    2.384170    L3
Au    17.520000    3.371726    2.384170    L3
Au    13.140000    10.958108    2.384170    L3
Au    21.900000    10.958108    2.384170    L3
Au    4.380000    5.900520    2.384170    L3
Au    13.140000    5.900520    2.384170    L3
Au    7.300000    5.900520    2.384170    L3
Au    16.059999    5.900520    2.384170    L3
Au    10.220000    5.900520    2.384170    L3
Au    18.980000    5.900520    2.384170    L3
Au    0.000000    1.685863    4.768340    L3
Au    8.760000    1.685863    4.768340    L3
Au    4.380000    9.272245    4.768340    L3
Au    13.140000    9.272245    4.768340    L3
Au    2.920000    1.685863    4.768340    L3
Au    11.680000    1.685863    4.768340    L3
Au    7.300000    9.272245    4.768340    L3
Au    16.059999    9.272245    4.768340    L3
Au    5.840000    1.685863    4.768340    L3
Au    14.600000    1.685863    4.768340    L3
Au    10.220000    9.272245    4.768340    L3
Au    18.980000    9.272245    4.768340    L3
Au    1.460000    4.214657    4.768340    L3
Au    10.220000    4.214657    4.768340    L3
Au    5.840000    11.801040    4.768340    L3
Au    14.600000    11.801040    4.768340    L3
Au    4.380000    4.214657    4.768340    L3
Au    13.140000    4.214657    4.768340    L3
Au    8.760000    11.801040    4.768340    L3
Au    17.520000    11.801040    4.768340    L3
Au    7.300000    4.214657    4.768340    L3
Au    16.059999    4.214657    4.768340    L3
Au    11.680000    11.801040    4.768340    L3
Au    20.440001    11.801040    4.768340    L3
Au    2.920000    6.743451    4.768340    L3
Au    11.680000    6.743451    4.768340    L3
Au    5.840000    6.743451    4.768340    L3
Au    14.600000    6.743451    4.768340    L3
Au    8.760000    6.743451    4.768340    L3
Au    17.520000    6.743451    4.768340    L3
Au    0.000000    0.000000    7.152510    L2
Au    8.760000    0.000000    7.152510    L2
Au    4.380000    7.586382    7.152510    L2
Au    13.140000    7.586382    7.152510    L2
Au    2.920000    0.000000    7.152510    L2
Au    11.680000    0.000000    7.152510    L2
Au    7.300000    7.586382    7.152510    L2
Au    16.059999    7.586382    7.152510    L2
Au    5.840000    0.000000    7.152510    L2
Au    14.600000    0.000000    7.152510    L2
Au    10.220000    7.586382    7.152510    L2
Au    18.980000    7.586382    7.152510    L2
Au    1.460000    2.528794    7.152510    L2
Au    10.220000    2.528794    7.152510    L2
Au    5.840000    10.115176    7.152510    L2
Au    14.600000    10.115176    7.152510    L2
Au    4.380000    2.528794    7.152510    L2
Au    13.140000    2.528794    7.152510    L2
Au    8.760000    10.115176    7.152510    L2
Au    17.520000    10.115176    7.152510    L2
Au    7.300000    2.528794    7.152510    L2
Au    16.059999    2.528794    7.152510    L2
Au    11.680000    10.115176    7.152510    L2
Au    20.440001    10.115176    7.152510    L2
Au    2.920000    5.057588    7.152510    L2
Au    11.680000    5.057588    7.152510    L2
Au    5.840000    5.057588    7.152510    L2
Au    14.600000    5.057588    7.152510    L2
Au    8.760000    5.057588    7.152510    L2
Au    17.520000    5.057588    7.152510    L2
Au    1.460000    0.842931    9.536680    L2
Au    10.220000    0.842931    9.536680    L2
Au    5.840000    8.429314    9.536680    L2
Au    14.600000    8.429314    9.536680    L2
Au    4.380000    0.842931    9.536680    L2
Au    13.140000    0.842931    9.536680    L2
Au    8.760000    8.429314    9.536680    L2
Au    17.520000    8.429314    9.536680    L2
Au    7.300000    0.842931    9.536680    L2
Au    16.059999    0.842931    9.536680    L2
Au    11.680000    8.429314    9.536680    L2
Au    20.440001    8.429314    9.536680    L2
Au    2.920000    3.371726    9.536680    L2
Au    11.680000    3.371726    9.536680    L2
Au    7.300000    10.958108    9.536680    L2
Au    16.059999    10.958108    9.536680    L2
Au    5.840000    3.371726    9.536680    L2
Au    14.600000    3.371726    9.536680    L2
Au    10.220000    10.958108    9.536680    L2
Au    18.980000    10.958108    9.536680    L2
Au    8.760000    3.371726    9.536680    L2
Au    17.520000    3.371726    9.536680    L2
Au    13.140000    10.958108    9.536680    L2
Au    21.900000    10.958108    9.536680    L2
Au    4.380000    5.900520    9.536680    L2
Au    13.140000    5.900520    9.536680    L2
Au    7.300000    5.900520    9.536680    L2
Au    16.059999    5.900520    9.536680    L2
Au    10.220000    5.900520    9.536680    L2
Au    18.980000    5.900520    9.536680    L2
Au    0.000000    1.685863    11.920850    L2
Au    8.760000    1.685863    11.920850    L2
Au    4.380000    9.272245    11.920850    L2
Au    13.140000    9.272245    11.920850    L2
Au    2.920000    1.685863    11.920850    L2
Au    11.680000    1.685863    11.920850    L2
Au    7.300000    9.272245    11.920850    L2
Au    16.059999    9.272245    11.920850    L2
Au    5.840000    1.685863    11.920850    L2
Au    14.600000    1.685863    11.920850    L2
Au    10.220000    9.272245    11.920850    L2
Au    18.980000    9.272245    11.920850    L2
Au    1.460000    4.214657    11.920850    L2
Au    10.220000    4.214657    11.920850    L2
Au    5.840000    11.801040    11.920850    L2
Au    14.600000    11.801040    11.920850    L2
Au    4.380000    4.214657    11.920850    L2
Au    13.140000    4.214657    11.920850    L2
Au    8.760000    11.801040    11.920850    L2
Au    17.520000    11.801040    11.920850    L2
Au    7.300000    4.214657    11.920850    L2
Au    16.059999    4.214657    11.920850    L2
Au    11.680000    11.801040    11.920850    L2
Au    20.440001    11.801040    11.920850    L2
Au    2.920000    6.743451    11.920850    L2
Au    11.680000    6.743451    11.920850    L2
Au    5.840000    6.743451    11.920850    L2
Au    14.600000    6.743451    11.920850    L2
Au    8.760000    6.743451    11.920850    L2
Au    17.520000    6.743451    11.920850    L2
Au    0.000000    0.000000    14.305019    L1
Au    8.760000    0.000000    14.305019    L1
Au    4.380000    7.586382    14.305019    L1
Au    13.140000    7.586382    14.305019    L1
Au    2.920000    0.000000    14.305019    L1
Au    11.680000    0.000000    14.305019    L1
Au    7.300000    7.586382    14.305019    L1
Au    16.059999    7.586382    14.305019    L1
Au    5.840000    0.000000    14.305019    L1
Au    14.600000    0.000000    14.305019    L1
Au    10.220000    7.586382    14.305019    L1
Au    18.980000    7.586382    14.305019    L1
Au    1.460000    2.528794    14.305019    L1
Au    10.220000    2.528794    14.305019    L1
Au    5.840000    10.115176    14.305019    L1
Au    14.600000    10.115176    14.305019    L1
Au    4.380000    2.528794    14.305019    L1
Au    13.140000    2.528794    14.305019    L1
Au    8.760000    10.115176    14.305019    L1
Au    17.520000    10.115176    14.305019    L1
Au    7.300000    2.528794    14.305019    L1
Au    16.059999    2.528794    14.305019    L1
Au    11.680000    10.115176    14.305019    L1
Au    20.440001    10.115176    14.305019    L1
Au    2.920000    5.057588    14.305019    L1
Au    11.680000    5.057588    14.305019    L1
Au    5.840000    5.057588    14.305019    L1
Au    14.600000    5.057588    14.305019    L1
Au    8.760000    5.057588    14.305019    L1
Au    17.520000    5.057588    14.305019    L1
Au    1.460000    0.842931    16.689190    L1
Au    10.220000    0.842931    16.689190    L1
Au    5.840000    8.429314    16.689190    L1
Au    14.600000    8.429314    16.689190    L1
Au    4.380000    0.842931    16.689190    L1
Au    13.140000    0.842931    16.689190    L1
Au    8.760000    8.429314    16.689190    L1
Au    17.520000    8.429314    16.689190    L1
Au    7.300000    0.842931    16.689190    L1
Au    16.059999    0.842931    16.689190    L1
Au    11.680000    8.429314    16.689190    L1
Au    20.440001    8.429314    16.689190    L1
Au    2.920000    3.371726    16.689190    L1
Au    11.680000    3.371726    16.689190    L1
Au    7.300000    10.958108    16.689190    L1
Au    16.059999    10.958108    16.689190    L1
Au    5.840000    3.371726    16.689190    L1
Au    14.600000    3.371726    16.689190    L1
Au    10.220000    10.958108    16.689190    L1
Au    18.980000    10.958108    16.689190    L1
Au    8.760000    3.371726    16.689190    L1
Au    17.520000    3.371726    16.689190    L1
Au    13.140000    10.958108    16.689190    L1
Au    21.900000    10.958108    16.689190    L1
Au    4.380000    5.900520    16.689190    L1
Au    13.140000    5.900520    16.689190    L1
Au    7.300000    5.900520    16.689190    L1
Au    16.059999    5.900520    16.689190    L1
Au    10.220000    5.900520    16.689190    L1
Au    18.980000    5.900520    16.689190    L1
Au    0.000000    1.685863    19.073360    L1
Au    8.760000    1.685863    19.073360    L1
Au    4.380000    9.272245    19.073360    L1
Au    13.140000    9.272245    19.073360    L1
Au    2.920000    1.685863    19.073360    L1
Au    11.680000    1.685863    19.073360    L1
Au    7.300000    9.272245    19.073360    L1
Au    16.059999    9.272245    19.073360    L1
Au    5.840000    1.685863    19.073360    L1
Au    14.600000    1.685863    19.073360    L1
Au    10.220000    9.272245    19.073360    L1
Au    18.980000    9.272245    19.073360    L1
Au    1.460000    4.214657    19.073360    L1
Au    10.220000    4.214657    19.073360    L1
Au    5.840000    11.801040    19.073360    L1
Au    14.600000    11.801040    19.073360    L1
Au    4.380000    4.214657    19.073360    L1
Au    13.140000    4.214657    19.073360    L1
Au    8.760000    11.801040    19.073360    L1
Au    17.520000    11.801040    19.073360    L1
Au    7.300000    4.214657    19.073360    L1
Au    16.059999    4.214657    19.073360    L1
Au    11.680000    11.801040    19.073360    L1
Au    20.440001    11.801040    19.073360    L1
Au    2.920000    6.743451    19.073360    L1
Au    11.680000    6.743451    19.073360    L1
Au    5.840000    6.743451    19.073360    L1
Au    14.600000    6.743451    19.073360    L1
Au    8.760000    6.743451    19.073360    L1
Au    17.520000    6.743451    19.073360    L1
Au    0.0000000000    0.0000000000    21.457530000000002    L0
Au    8.7600000000    0.0000000000    21.457530000000002    L0
Au    4.3800000000    7.5863820000    21.457530000000002    L0
Au    13.1400000000    7.5863820000    21.457530000000002    L0
Au    2.9200000000    0.0000000000    21.457530000000002    L0
Au    11.6800000000    0.0000000000    21.457530000000002    L0
Au    7.3000000000    7.5863820000    21.457530000000002    L0
Au    16.0599990000    7.5863820000    21.457530000000002    L0
Au    5.8400000000    0.0000000000    21.457530000000002    L0
Au    14.6000000000    0.0000000000    21.457530000000002    L0
Au    10.2200000000    7.5863820000    21.457530000000002    L0
Au    18.9800000000    7.5863820000    21.457530000000002    L0
Au    1.4600000000    2.5287940000    21.457530000000002    L0
Au    10.2200000000    2.5287940000    21.457530000000002    L0
Au    5.8400000000    10.1151760000    21.457530000000002    L0
Au    14.6000000000    10.1151760000    21.457530000000002    L0
Au    4.3800000000    2.5287940000    21.457530000000002    L0
Au    13.1400000000    2.5287940000    21.457530000000002    L0
Au    8.7600000000    10.1151760000    21.457530000000002    L0
Au    17.5200000000    10.1151760000    21.457530000000002    L0
Au    7.3000000000    2.5287940000    21.457530000000002    L0
Au    16.0599990000    2.5287940000    21.457530000000002    L0
Au    11.6800000000    10.1151760000    21.457530000000002    L0
Au    20.4400010000    10.1151760000    21.457530000000002    L0
Au    2.9200000000    5.0575880000    21.457530000000002    L0
Au    11.6800000000    5.0575880000    21.457530000000002    L0
Au    5.8400000000    5.0575880000    21.457530000000002    L0
Au    14.6000000000    5.0575880000    21.457530000000002    L0
Au    8.7600000000    5.0575880000    21.457530000000002    L0
Au    17.5200000000    5.0575880000    21.457530000000002    L0
Au    1.4600000000    0.8429310000    23.841700000000003    L0
Au    10.2200000000    0.8429310000    23.841700000000003    L0
Au    5.8400000000    8.4293140000    23.841700000000003    L0
Au    14.6000000000    8.4293140000    23.841700000000003    L0
Au    4.3800000000    0.8429310000    23.841700000000003    L0
Au    13.1400000000    0.8429310000    23.841700000000003    L0
Au    8.7600000000    8.4293140000    23.841700000000003    L0
Au    17.5200000000    8.4293140000    23.841700000000003    L0
Au    7.3000000000    0.8429310000    23.841700000000003    L0
Au    16.0599990000    0.8429310000    23.841700000000003    L0
Au    11.6800000000    8.4293140000    23.841700000000003    L0
Au    20.4400010000    8.4293140000    23.841700000000003    L0
Au    2.9200000000    3.3717260000    23.841700000000003    L0
Au    11.6800000000    3.3717260000    23.841700000000003    L0
Au    7.3000000000    10.9581080000    23.841700000000003    L0
Au    16.0599990000    10.9581080000    23.841700000000003    L0
Au    5.8400000000    3.3717260000    23.841700000000003    L0
Au    14.6000000000    3.3717260000    23.841700000000003    L0
Au    10.2200000000    10.9581080000    23.841700000000003    L0
Au    18.9800000000    10.9581080000    23.841700000000003    L0
Au    8.7600000000    3.3717260000    23.841700000000003    L0
Au    17.5200000000    3.3717260000    23.841700000000003    L0
Au    13.1400000000    10.9581080000    23.841700000000003    L0
Au    21.9000000000    10.9581080000    23.841700000000003    L0
Au    4.3800000000    5.9005200000    23.841700000000003    L0
Au    13.1400000000    5.9005200000    23.841700000000003    L0
Au    7.3000000000    5.9005200000    23.841700000000003    L0
Au    16.0599990000    5.9005200000    23.841700000000003    L0
Au    10.2200000000    5.9005200000    23.841700000000003    L0
Au    18.9800000000    5.9005200000    23.841700000000003    L0
Au    0.0000000000    1.6858630000    26.22587    L0
Au    8.7600000000    1.6858630000    26.22587    L0
Au    4.3800000000    9.2722450000    26.22587    L0
Au    13.1400000000    9.2722450000    26.22587    L0
Au    2.9200000000    1.6858630000    26.22587    L0
Au    11.6800000000    1.6858630000    26.22587    L0
Au    7.3000000000    9.2722450000    26.22587    L0
Au    16.0599990000    9.2722450000    26.22587    L0
Au    5.8400000000    1.6858630000    26.22587    L0
Au    14.6000000000    1.6858630000    26.22587    L0
Au    10.2200000000    9.2722450000    26.22587    L0
Au    18.9800000000    9.2722450000    26.22587    L0
Au    1.4600000000    4.2146570000    26.22587    L0
Au    10.2200000000    4.2146570000    26.22587    L0
Au    5.8400000000    11.8010400000    26.22587    L0
Au    14.6000000000    11.8010400000    26.22587    L0
Au    4.3800000000    4.2146570000    26.22587    L0
Au    13.1400000000    4.2146570000    26.22587    L0
Au    8.7600000000    11.8010400000    26.22587    L0
Au    17.5200000000    11.8010400000    26.22587    L0
Au    7.3000000000    4.2146570000    26.22587    L0
Au    16.0599990000    4.2146570000    26.22587    L0
Au    11.6800000000    11.8010400000    26.22587    L0
Au    20.4400010000    11.8010400000    26.22587    L0
Au    2.9200000000    6.7434510000    26.22587    L0
Au    11.6800000000    6.7434510000    26.22587    L0
Au    5.8400000000    6.7434510000    26.22587    L0
Au    14.6000000000    6.7434510000    26.22587    L0
Au    8.7600000000    6.7434510000    26.22587    L0
Au    17.5200000000    6.7434510000    26.22587    L0
H    10.5455406871    5.1729759311    32.9626920108    S
C    10.4927292505    5.8032076893    32.0726703961    S
C    10.8967263560    7.1446298981    32.151500300900004    S
C    10.8355529956    7.9196172735    30.979113545400004    S
H    11.1656395777    8.9605597735    31.000984192000004    S
C    10.3483315444    7.3955358338    29.7840293012    S
H    10.2832494573    8.0233025294    28.8934424053    S
C    9.9147312180    6.0611439729    29.7309253178    S
C    10.0139954186    5.2585825586    30.882487383800004    S
H    9.6934213193    4.2171970116    30.8455955358    S
C    11.3433243480    7.7507900971    33.460640623900005    S
C    10.3367134364    8.7829185614    34.027474490100005    S
H    10.1844323919    9.5501498866    33.251888691800005    S
H    12.3069915779    8.2660996573    33.3171113455    S
H    11.5220467912    6.9519439322    34.1946136902    S
C    10.8259255011    9.4620718004    35.3179336164    S
C    8.9707488010    8.1947733980    34.4217175615    S
C    8.1914945494    8.8825929543    42.2075577302    S
C    7.8293527722    7.6123084095    42.8057925398    S
C    9.0485423210    6.9338277871    43.2007097434    S
C    10.1743992957    7.7858237618    42.8446040147    S
C    9.6419907879    8.9879793809    42.2253736583    S
C    10.3140334176    9.5716585653    41.146880251400006    S
C    11.5472009258    8.9912331061    40.6503857426    S
C    12.0638264556    7.8356974086    41.2512978721    S
C    11.3573970959    7.2199253815    42.363022355400005    S
C    11.4651179002    5.7765942324    42.2144883727    S
C    10.3841975294    4.9565716123    42.5513445217    S
C    9.1527163990    5.5435752274    43.0549438022    S
C    8.0408397096    4.7834817405    42.5192561981    S
C    6.8606746638    5.4366551220    42.1438448591    S
C    6.7518063167    6.8744713283    42.2860642719    S
C    6.0023882457    7.3851548042    41.1545947737    S
C    5.6503776576    6.2577444493    40.30577724530001    S
C    6.1744960343    5.0496190210    40.9203941576    S
C    6.6909147026    4.0280073120    40.119976376    S
C    7.9176996700    3.3497048104    40.5096700697    S
C    8.5794994539    3.7224079554    41.6834951242    S
C    10.0282988891    3.8323903366    41.701647072200004    S
C    10.7621498369    3.5755331638    40.5395229281    S
C    11.8821121409    4.4312942706    40.1859092675    S
C    12.2337957614    5.5089500157    41.0117150131    S
C    12.6038854853    6.7786550898    40.418660123    S
C    12.6072958531    6.9235631604    39.0250281079    S
C    12.0716548817    8.1214981138    38.4041787643    S
C    11.5624873320    9.1364188622    39.205792221500005    S
C    10.3159970562    9.8003428715    38.8048653683    S
C    9.6755282771    9.4431905841    37.627826318800004    S
C    10.3265371774    8.5953338680    36.5273909367    S
C    11.4020041848    7.7465591256    37.1627217714    S
C    11.4740450301    6.3609748613    37.045229531000004    S
C    12.2324418123    5.8152868399    38.1812083791    S
C    11.8810102320    4.5965936228    38.7483741418    S
C    10.7547536917    3.8269779138    38.2072941978    S
C    10.0745852075    3.1950615667    39.3172341531    S
C    8.6771348420    3.0764117842    39.3023273292    S
C    7.9244130683    3.5781329458    38.1695467945    S
C    6.6981771343    4.1657543896    38.6723291082    S
C    6.2000319424    5.3340004007    38.0798123742    S
C    5.6706099855    6.3958976640    38.9145716298    S
C    6.0516366424    7.6660651496    38.3201826601    S
C    6.8108877127    7.4033245639    37.1193071963    S
C    6.8973044976    5.9458999681    36.962900267    S
C    8.0777810855    5.3901282540    36.4834268595    S
C    8.5957713626    4.1803255091    37.0967311272    S
C    10.0320252369    4.3105343625    37.123494720500005    S
C    10.3700833823    5.6060577851    36.514135015    S
C    9.2009670404    6.2414200979    36.102500063200004    S
C    9.0686216707    7.7356626393    35.9202235752    S
C    7.8781626446    8.2141187941    36.7623525411    S
C    8.2501952639    9.2976656907    37.623313652600004    S
C    7.4928419803    9.5901591609    38.783297846800004    S
C    6.3703126494    8.7571580711    39.1375530664    S
C    6.3496623812    8.6128543239    40.580669307600004    S
C    7.4660602598    9.3763141360    41.1174214449    S
C    8.1623727670    9.9826130109    39.9990480282    S
C    9.5598727005    10.0653439626    40.0070796661    S
H    8.6522095071    7.3716733580    33.7693283236    S
H    8.2020271465    8.9780688193    34.351916346500005    S
S    9.0829620114    5.3354646879    28.3432298926    S
H    10.3736233363    10.4611446268    35.4012047936    S
H    11.9155791283    9.5949503775    35.347753143800006    S
Au    8.7899945788    6.7570718366    47.3583862823    R0
Au    0.0000000000    0.0000000000    49.6677794069    R0
Au    8.7600000000    0.0000000000    49.6677794069    R0
Au    4.3800000000    7.5863820000    49.6677794069    R0
Au    13.1400000000    7.5863820000    49.6677794069    R0
Au    2.9200000000    0.0000000000    49.6677794069    R0
Au    11.6800000000    0.0000000000    49.6677794069    R0
Au    7.3000000000    7.5863820000    49.6677794069    R0
Au    16.0599990000    7.5863820000    49.6677794069    R0
Au    5.8400000000    0.0000000000    49.6677794069    R0
Au    14.6000000000    0.0000000000    49.6677794069    R0
Au    10.2200000000    7.5863820000    49.6677794069    R0
Au    18.9800000000    7.5863820000    49.6677794069    R0
Au    1.4600000000    2.5287940000    49.6677794069    R0
Au    10.2200000000    2.5287940000    49.6677794069    R0
Au    5.8400000000    10.1151760000    49.6677794069    R0
Au    14.6000000000    10.1151760000    49.6677794069    R0
Au    4.3800000000    2.5287940000    49.6677794069    R0
Au    13.1400000000    2.5287940000    49.6677794069    R0
Au    8.7600000000    10.1151760000    49.6677794069    R0
Au    17.5200000000    10.1151760000    49.6677794069    R0
Au    7.3000000000    2.5287940000    49.6677794069    R0
Au    16.0599990000    2.5287940000    49.6677794069    R0
Au    11.6800000000    10.1151760000    49.6677794069    R0
Au    20.4400010000    10.1151760000    49.6677794069    R0
Au    2.9200000000    5.0575880000    49.6677794069    R0
Au    11.6800000000    5.0575880000    49.6677794069    R0
Au    5.8400000000    5.0575880000    49.6677794069    R0
Au    14.6000000000    5.0575880000    49.6677794069    R0
Au    8.7600000000    5.0575880000    49.6677794069    R0
Au    17.5200000000    5.0575880000    49.6677794069    R0
Au    1.4600000000    0.8429310000    52.0519494069    R0
Au    10.2200000000    0.8429310000    52.0519494069    R0
Au    5.8400000000    8.4293140000    52.0519494069    R0
Au    14.6000000000    8.4293140000    52.0519494069    R0
Au    4.3800000000    0.8429310000    52.0519494069    R0
Au    13.1400000000    0.8429310000    52.0519494069    R0
Au    8.7600000000    8.4293140000    52.0519494069    R0
Au    17.5200000000    8.4293140000    52.0519494069    R0
Au    7.3000000000    0.8429310000    52.0519494069    R0
Au    16.0599990000    0.8429310000    52.0519494069    R0
Au    11.6800000000    8.4293140000    52.0519494069    R0
Au    20.4400010000    8.4293140000    52.0519494069    R0
Au    2.9200000000    3.3717260000    52.0519494069    R0
Au    11.6800000000    3.3717260000    52.0519494069    R0
Au    7.3000000000    10.9581080000    52.0519494069    R0
Au    16.0599990000    10.9581080000    52.0519494069    R0
Au    5.8400000000    3.3717260000    52.0519494069    R0
Au    14.6000000000    3.3717260000    52.0519494069    R0
Au    10.2200000000    10.9581080000    52.0519494069    R0
Au    18.9800000000    10.9581080000    52.0519494069    R0
Au    8.7600000000    3.3717260000    52.0519494069    R0
Au    17.5200000000    3.3717260000    52.0519494069    R0
Au    13.1400000000    10.9581080000    52.0519494069    R0
Au    21.9000000000    10.9581080000    52.0519494069    R0
Au    4.3800000000    5.9005200000    52.0519494069    R0
Au    13.1400000000    5.9005200000    52.0519494069    R0
Au    7.3000000000    5.9005200000    52.0519494069    R0
Au    16.0599990000    5.9005200000    52.0519494069    R0
Au    10.2200000000    5.9005200000    52.0519494069    R0
Au    18.9800000000    5.9005200000    52.0519494069    R0
Au    0.0000000000    1.6858630000    54.436119406900005    R0
Au    8.7600000000    1.6858630000    54.436119406900005    R0
Au    4.3800000000    9.2722450000    54.436119406900005    R0
Au    13.1400000000    9.2722450000    54.436119406900005    R0
Au    2.9200000000    1.6858630000    54.436119406900005    R0
Au    11.6800000000    1.6858630000    54.436119406900005    R0
Au    7.3000000000    9.2722450000    54.436119406900005    R0
Au    16.0599990000    9.2722450000    54.436119406900005    R0
Au    5.8400000000    1.6858630000    54.436119406900005    R0
Au    14.6000000000    1.6858630000    54.436119406900005    R0
Au    10.2200000000    9.2722450000    54.436119406900005    R0
Au    18.9800000000    9.2722450000    54.436119406900005    R0
Au    1.4600000000    4.2146570000    54.436119406900005    R0
Au    10.2200000000    4.2146570000    54.436119406900005    R0
Au    5.8400000000    11.8010400000    54.436119406900005    R0
Au    14.6000000000    11.8010400000    54.436119406900005    R0
Au    4.3800000000    4.2146570000    54.436119406900005    R0
Au    13.1400000000    4.2146570000    54.436119406900005    R0
Au    8.7600000000    11.8010400000    54.436119406900005    R0
Au    17.5200000000    11.8010400000    54.436119406900005    R0
Au    7.3000000000    4.2146570000    54.436119406900005    R0
Au    16.0599990000    4.2146570000    54.436119406900005    R0
Au    11.6800000000    11.8010400000    54.436119406900005    R0
Au    20.4400010000    11.8010400000    54.436119406900005    R0
Au    2.9200000000    6.7434510000    54.436119406900005    R0
Au    11.6800000000    6.7434510000    54.436119406900005    R0
Au    5.8400000000    6.7434510000    54.436119406900005    R0
Au    14.6000000000    6.7434510000    54.436119406900005    R0
Au    8.7600000000    6.7434510000    54.436119406900005    R0
Au    17.5200000000    6.7434510000    54.436119406900005    R0
Au    0.000000    0.000000    56.8202894069    R1
Au    8.760000    0.000000    56.8202894069    R1
Au    4.380000    7.586382    56.8202894069    R1
Au    13.140000    7.586382    56.8202894069    R1
Au    2.920000    0.000000    56.8202894069    R1
Au    11.680000    0.000000    56.8202894069    R1
Au    7.300000    7.586382    56.8202894069    R1
Au    16.059999    7.586382    56.8202894069    R1
Au    5.840000    0.000000    56.8202894069    R1
Au    14.600000    0.000000    56.8202894069    R1
Au    10.220000    7.586382    56.8202894069    R1
Au    18.980000    7.586382    56.8202894069    R1
Au    1.460000    2.528794    56.8202894069    R1
Au    10.220000    2.528794    56.8202894069    R1
Au    5.840000    10.115176    56.8202894069    R1
Au    14.600000    10.115176    56.8202894069    R1
Au    4.380000    2.528794    56.8202894069    R1
Au    13.140000    2.528794    56.8202894069    R1
Au    8.760000    10.115176    56.8202894069    R1
Au    17.520000    10.115176    56.8202894069    R1
Au    7.300000    2.528794    56.8202894069    R1
Au    16.059999    2.528794    56.8202894069    R1
Au    11.680000    10.115176    56.8202894069    R1
Au    20.440001    10.115176    56.8202894069    R1
Au    2.920000    5.057588    56.8202894069    R1
Au    11.680000    5.057588    56.8202894069    R1
Au    5.840000    5.057588    56.8202894069    R1
Au    14.600000    5.057588    56.8202894069    R1
Au    8.760000    5.057588    56.8202894069    R1
Au    17.520000    5.057588    56.8202894069    R1
Au    1.460000    0.842931    59.2044594069    R1
Au    10.220000    0.842931    59.2044594069    R1
Au    5.840000    8.429314    59.2044594069    R1
Au    14.600000    8.429314    59.2044594069    R1
Au    4.380000    0.842931    59.2044594069    R1