     184
 i =      154, E =     -5087.1334458130
 Au         0.0000000000        0.0000000000       -0.8577996266
 Au         8.7600000000        0.0000000000       -0.8538786320
 Au         4.3800000000        7.5863820000       -0.8513344010
 Au        13.1400000000        7.5863820000       -0.8641053276
 Au         2.9200000000        0.0000000000       -0.8609913121
 Au        11.6800000000        0.0000000000       -0.8549334600
 Au         7.3000000000        7.5863820000       -0.8477545099
 Au        16.0599990000        7.5863820000       -0.8567833762
 Au         5.8400000000        0.0000000000       -0.8570912759
 Au        10.2200000000        7.5863820000       -0.8551915074
 Au         1.4600000000        2.5287940000       -0.8630068959
 Au        10.2200000000        2.5287940000       -0.8517249123
 Au         5.8400000000       10.1151760000       -0.8524261530
 Au        14.6000000000       10.1151760000       -0.8572188194
 Au         4.3800000000        2.5287940000       -0.8587054013
 Au        13.1400000000        2.5287940000       -0.8603177894
 Au         8.7600000000       10.1151760000       -0.8559172558
 Au        17.5200000000       10.1151760000       -0.8536870023
 Au         7.3000000000        2.5287940000       -0.8514629427
 Au        11.6800000000       10.1151760000       -0.8618850026
 Au         2.9200000000        5.0575880000       -0.8571021590
 Au        11.6800000000        5.0575880000       -0.8578181027
 Au         5.8400000000        5.0575880000       -0.8502786342
 Au        14.6000000000        5.0575880000       -0.8642609800
 Au         8.7600000000        5.0575880000       -0.8463245481
 Au         1.4600000000        0.8429310000        1.7626505439
 Au        10.2200000000        0.8429310000        1.7690981919
 Au         5.8400000000        8.4293140000        1.7724980485
 Au        14.6000000000        8.4293140000        1.7642216348
 Au         4.3800000000        0.8429310000        1.7633643624
 Au        13.1400000000        0.8429310000        1.7651238341
 Au         8.7600000000        8.4293140000        1.7720055975
 Au        17.5200000000        8.4293140000        1.7686325063
 Au         7.3000000000        0.8429310000        1.7690451034
 Au        11.6800000000        8.4293140000        1.7589965437
 Au         2.9200000000        3.3717260000        1.7632342869
 Au        11.6800000000        3.3717260000        1.7657663652
 Au         7.3000000000       10.9581080000        1.7679935334
 Au        16.0599990000       10.9581080000        1.7676604000
 Au         5.8400000000        3.3717260000        1.7692363766
 Au        14.6000000000        3.3717260000        1.7591876157
 Au        10.2200000000       10.9581080000        1.7631263433
 Au        18.9800000000       10.9581080000        1.7688051855
 Au         8.7600000000        3.3717260000        1.7739902637
 Au        13.1400000000       10.9581080000        1.7645710219
 Au         4.3800000000        5.9005200000        1.7703426651
 Au        13.1400000000        5.9005200000        1.7573737515
 Au         7.3000000000        5.9005200000        1.7775640495
 Au        16.0599990000        5.9005200000        1.7639337098
 Au        10.2200000000        5.9005200000        1.7683247103
 Au         8.7600000000        1.6858630000        4.3952438066
 Au        13.1400000000        9.2722450000        4.3876114377
 Au         2.9200000000        1.6858630000        4.3855094984
 Au        11.6800000000        1.6858630000        4.3903391541
 Au         7.3000000000        9.2722450000        4.3956543120
 Au        16.0599990000        9.2722450000        4.3901921651
 Au         5.8400000000        1.6858630000        4.3896691868
 Au        14.6000000000        1.6858630000        4.3859828634
 Au        10.2200000000        9.2722450000        4.3896991445
 Au        18.9800000000        9.2722450000        4.3936193931
 Au        10.2200000000        4.2146570000        4.3885229760
 Au        14.6000000000       11.8010400000        4.3911006562
 Au         4.3800000000        4.2146570000        4.3904870395
 Au        13.1400000000        4.2146570000        4.3808241635
 Au         8.7600000000       11.8010400000        4.3880504844
 Au        17.5200000000       11.8010400000        4.3921024248
 Au         7.3000000000        4.2146570000        4.3973602343
 Au        16.0599990000        4.2146570000        4.3846566524
 Au        11.6800000000       11.8010400000        4.3864242940
 Au        20.4400010000       11.8010400000        4.3917752636
 Au        11.6800000000        6.7434510000        4.3685469349
 Au         5.8400000000        6.7434510000        4.3976523231
 Au        14.6000000000        6.7434510000        4.3865354054
 Au         8.7600000000        6.7434510000        4.4000371348
 Au        17.5200000000        6.7434510000        4.3912849926
  C        10.8680799301        5.0311910011        8.0654029965
  C        10.6331489146        4.0783216712        9.0599772555
  C        10.0719050756        4.4652686942       10.2786921246
  C         9.7334268629        5.8050212861       10.5270667354
  C        10.5257159075        6.3671696524        8.2923534247
  C         9.9637609945        6.7477619852        9.5130382459
  C        10.4177836786        7.8485150797       16.5586704726
  H         9.8904331781        3.7159402942       11.0527354058
  H        11.3194311511        4.7344403045        7.1166742340
  H        10.6983922493        7.1146116245        7.5154887538
  H         9.6976035529        7.7934105678        9.6841315963
  H        10.8882380154        3.0318794344        8.8856876552
  C        10.2530750815        6.9299159324       17.6067185492
  C         9.7417624616        7.3337281653       18.8423724993
  C         9.3841108536        8.6685356109       19.0500108402
  C         9.5485408699        9.5969606590       18.0186629312
  C        10.0599270873        9.1872171904       16.7856600827
  H         9.6237841162        6.6055419337       19.6473623057
  H        10.5346891302        5.8857743415       17.4520979118
  H         9.2803693324       10.6427150275       18.1764683642
  H        10.1901532135        9.9183531836       15.9843540512
  H         8.9774491430        8.9836721373       20.0129291637
  C         9.1940141124        6.2286862170       11.8717509308
  C        10.9249985377        7.4046160112       15.2080913601
  C         9.7927101507        7.0317216861       14.2326130674
  C        10.3144984425        6.6020699436       12.8604263347
  H         9.1134440587        7.8932308319       14.1215033888
  H         9.1868957352        6.2227309302       14.6738125863
  H        10.9226585500        7.4116980773       12.4235732433
  H        10.9945665267        5.7413726790       12.9729600698
  H         8.5896563128        5.4144516887       12.3028932592
  H         8.5199296838        7.0914230678       11.7484144214
  H        11.5933035349        6.5372031979       15.3297365879
  H        11.5311869121        8.2083559381       14.7596214706
 Au         8.7600020000        1.6858630000       22.7703489621
 Au        13.1400000000        9.2722460000       22.7620776522
 Au         2.9200000000        1.6858630000       22.7754338082
 Au        11.6800000000        1.6858630000       22.7687609877
 Au         7.3000000000        9.2722460000       22.7755598840
 Au        16.0599990000        9.2722460000       22.7675257263
 Au         5.8400010000        1.6858630000       22.7712660866
 Au        14.6000000000        1.6858630000       22.7728500475
 Au        10.2200000000        9.2722460000       22.7675237064
 Au        18.9800000000        9.2722460000       22.7720065929
 Au        10.2200010000        4.2146570000       22.7663401991
 Au        14.6000000000       11.8010400000       22.7679662242
 Au         4.3800000000        4.2146570000       22.7766714879
 Au        13.1400000000        4.2146570000       22.7679264051
 Au         8.7600000000       11.8010400000       22.7723529484
 Au        17.5200000000       11.8010400000       22.7695427992
 Au         7.3000000000        4.2146570000       22.7714662222
 Au        16.0599990000        4.2146570000       22.7742654396
 Au        11.6800000000       11.8010400000       22.7658414390
 Au        20.4400010000       11.8010400000       22.7702809358
 Au        11.6800000000        6.7434510000       22.7588011945
 Au         5.8400000000        6.7434510000       22.7733171950
 Au        14.6000000000        6.7434510000       22.7659874465
 Au         8.7600000000        6.7434510000       22.7807742012
 Au        17.5200000000        6.7434510000       22.7727030209
 Au         1.4600000000        0.8429310000       25.3983109068
 Au        10.2200000000        0.8429310000       25.3931107025
 Au         5.8400010000        8.4293140000       25.3967424312
 Au        14.6000000000        8.4293140000       25.3873620547
 Au         4.3800000000        0.8429310000       25.3945971680
 Au        13.1400010000        0.8429310000       25.3945804809
 Au         8.7600000000        8.4293140000       25.3935235051
 Au        17.5200000000        8.4293140000       25.3938195174
 Au         7.3000010000        0.8429310000       25.3931500677
 Au        11.6800000000        8.4293140000       25.3826196528
 Au         2.9200000000        3.3717260000       25.3999850799
 Au        11.6800010000        3.3717260000       25.3915028385
 Au         7.3000000000       10.9581090000       25.3955709700
 Au        16.0599980000       10.9581090000       25.3913836587
 Au         5.8400000000        3.3717260000       25.3970928125
 Au        14.6000000000        3.3717260000       25.3957699930
 Au        10.2200000000       10.9581090000       25.3899667890
 Au        18.9800000000       10.9581090000       25.3944057291
 Au         8.7600000000        3.3717260000       25.3936958301
 Au        13.1399990000       10.9581090000       25.3874676668
 Au         4.3800000000        5.9005200000       25.3980866732
 Au        13.1400000000        5.9005200000       25.3871841134
 Au         7.3000000000        5.9005200000       25.3987802016
 Au        16.0599990000        5.9005200000       25.3943947532
 Au        10.2200000000        5.9005200000       25.3906460143
 Au         0.0000000000        0.0000000000       28.0200913416
 Au         8.7600000000        0.0000000000       28.0147092072
 Au         4.3800000000        7.5863820000       28.0199524125
 Au        13.1399990000        7.5863820000       28.0074448928
 Au         2.9200000000        0.0000000000       28.0175830379
 Au        11.6800000000        0.0000000000       28.0164643424
 Au         7.3000000000        7.5863820000       28.0195179432
 Au        16.0599990000        7.5863820000       28.0146170593
 Au         5.8400000000        0.0000000000       28.0148274430
 Au        10.2200000000        7.5863820000       28.0082504597
 Au         1.4600000000        2.5287940000       28.0225517324
 Au        10.2200000000        2.5287940000       28.0158056129
 Au         5.8400000000       10.1151760000       28.0197771059
 Au        14.6000000000       10.1151760000       28.0109083893
 Au         4.3800000000        2.5287940000       28.0212129509
 Au        13.1400000000        2.5287940000       28.0173076669
 Au         8.7600000000       10.1151760000       28.0154536147
 Au        17.5200000000       10.1151760000       28.0154400727
 Au         7.3000000000        2.5287940000       28.0183773358
 Au        11.6800000000       10.1151760000       28.0073282434
 Au         2.9200000000        5.0575880000       28.0210132559
 Au        11.6800000000        5.0575880000       28.0129890697
 Au         5.8400000000        5.0575880000       28.0223963233
 Au        14.6000000000        5.0575880000       28.0165717726
 Au         8.7600000000        5.0575880000       28.0178036967
