 420
 i =       82, E =     -3365.3998523447
Au     0.000000     0.000000     0.000000     L3
Au     8.760000     0.000000     0.000000     L3
Au     4.380000     7.586382     0.000000     L3
Au     13.140000     7.586382     0.000000     L3
Au     2.920000     0.000000     0.000000     L3
Au     11.680000     0.000000     0.000000     L3
Au     7.300000     7.586382     0.000000     L3
Au     16.059999     7.586382     0.000000     L3
Au     5.840000     0.000000     0.000000     L3
Au     10.220000     7.586382     0.000000     L3
Au     1.460000     2.528794     0.000000     L3
Au     10.220000     2.528794     0.000000     L3
Au     5.840000     10.115176     0.000000     L3
Au     14.600000     10.115176     0.000000     L3
Au     4.380000     2.528794     0.000000     L3
Au     13.140000     2.528794     0.000000     L3
Au     8.760000     10.115176     0.000000     L3
Au     17.520000     10.115176     0.000000     L3
Au     7.300000     2.528794     0.000000     L3
Au     11.680000     10.115176     0.000000     L3
Au     2.920000     5.057588     0.000000     L3
Au     11.680000     5.057588     0.000000     L3
Au     5.840000     5.057588     0.000000     L3
Au     14.600000     5.057588     0.000000     L3
Au     8.760000     5.057588     0.000000     L3
Au     1.460000     0.842931     2.384170     L3
Au     10.220000     0.842931     2.384170     L3
Au     5.840000     8.429314     2.384170     L3
Au     14.600000     8.429314     2.384170     L3
Au     4.380000     0.842931     2.384170     L3
Au     13.140000     0.842931     2.384170     L3
Au     8.760000     8.429314     2.384170     L3
Au     17.520000     8.429314     2.384170     L3
Au     7.300000     0.842931     2.384170     L3
Au     11.680000     8.429314     2.384170     L3
Au     2.920000     3.371726     2.384170     L3
Au     11.680000     3.371726     2.384170     L3
Au     7.300000     10.958108     2.384170     L3
Au     16.059999     10.958108     2.384170     L3
Au     5.840000     3.371726     2.384170     L3
Au     14.600000     3.371726     2.384170     L3
Au     10.220000     10.958108     2.384170     L3
Au     18.980000     10.958108     2.384170     L3
Au     8.760000     3.371726     2.384170     L3
Au     13.140000     10.958108     2.384170     L3
Au     4.380000     5.900520     2.384170     L3
Au     13.140000     5.900520     2.384170     L3
Au     7.300000     5.900520     2.384170     L3
Au     16.059999     5.900520     2.384170     L3
Au     10.220000     5.900520     2.384170     L3
Au     8.760000     1.685863     4.768340     L3
Au     13.140000     9.272245     4.768340     L3
Au     2.920000     1.685863     4.768340     L3
Au     11.680000     1.685863     4.768340     L3
Au     7.300000     9.272245     4.768340     L3
Au     16.059999     9.272245     4.768340     L3
Au     5.840000     1.685863     4.768340     L3
Au     14.600000     1.685863     4.768340     L3
Au     10.220000     9.272245     4.768340     L3
Au     18.980000     9.272245     4.768340     L3
Au     10.220000     4.214657     4.768340     L3
Au     14.600000     11.801040     4.768340     L3
Au     4.380000     4.214657     4.768340     L3
Au     13.140000     4.214657     4.768340     L3
Au     8.760000     11.801040     4.768340     L3
Au     17.520000     11.801040     4.768340     L3
Au     7.300000     4.214657     4.768340     L3
Au     16.059999     4.214657     4.768340     L3
Au     11.680000     11.801040     4.768340     L3
Au     20.440001     11.801040     4.768340     L3
Au     11.680000     6.743451     4.768340     L3
Au     5.840000     6.743451     4.768340     L3
Au     14.600000     6.743451     4.768340     L3
Au     8.760000     6.743451     4.768340     L3
Au     17.520000     6.743451     4.768340     L3
Au     0.000000     0.000000     7.152510     L2
Au     8.760000     0.000000     7.152510     L2
Au     4.380000     7.586382     7.152510     L2
Au     13.140000     7.586382     7.152510     L2
Au     2.920000     0.000000     7.152510     L2
Au     11.680000     0.000000     7.152510     L2
Au     7.300000     7.586382     7.152510     L2
Au     16.059999     7.586382     7.152510     L2
Au     5.840000     0.000000     7.152510     L2
Au     10.220000     7.586382     7.152510     L2
Au     1.460000     2.528794     7.152510     L2
Au     10.220000     2.528794     7.152510     L2
Au     5.840000     10.115176     7.152510     L2
Au     14.600000     10.115176     7.152510     L2
Au     4.380000     2.528794     7.152510     L2
Au     13.140000     2.528794     7.152510     L2
Au     8.760000     10.115176     7.152510     L2
Au     17.520000     10.115176     7.152510     L2
Au     7.300000     2.528794     7.152510     L2
Au     11.680000     10.115176     7.152510     L2
Au     2.920000     5.057588     7.152510     L2
Au     11.680000     5.057588     7.152510     L2
Au     5.840000     5.057588     7.152510     L2
Au     14.600000     5.057588     7.152510     L2
Au     8.760000     5.057588     7.152510     L2
Au     1.460000     0.842931     9.536680     L2
Au     10.220000     0.842931     9.536680     L2
Au     5.840000     8.429314     9.536680     L2
Au     14.600000     8.429314     9.536680     L2
Au     4.380000     0.842931     9.536680     L2
Au     13.140000     0.842931     9.536680     L2
Au     8.760000     8.429314     9.536680     L2
Au     17.520000     8.429314     9.536680     L2
Au     7.300000     0.842931     9.536680     L2
Au     11.680000     8.429314     9.536680     L2
Au     2.920000     3.371726     9.536680     L2
Au     11.680000     3.371726     9.536680     L2
Au     7.300000     10.958108     9.536680     L2
Au     16.059999     10.958108     9.536680     L2
Au     5.840000     3.371726     9.536680     L2
Au     14.600000     3.371726     9.536680     L2
Au     10.220000     10.958108     9.536680     L2
Au     18.980000     10.958108     9.536680     L2
Au     8.760000     3.371726     9.536680     L2
Au     13.140000     10.958108     9.536680     L2
Au     4.380000     5.900520     9.536680     L2
Au     13.140000     5.900520     9.536680     L2
Au     7.300000     5.900520     9.536680     L2
Au     16.059999     5.900520     9.536680     L2
Au     10.220000     5.900520     9.536680     L2
Au     8.760000     1.685863     11.920850     L2
Au     13.140000     9.272245     11.920850     L2
Au     2.920000     1.685863     11.920850     L2
Au     11.680000     1.685863     11.920850     L2
Au     7.300000     9.272245     11.920850     L2
Au     16.059999     9.272245     11.920850     L2
Au     5.840000     1.685863     11.920850     L2
Au     14.600000     1.685863     11.920850     L2
Au     10.220000     9.272245     11.920850     L2
Au     18.980000     9.272245     11.920850     L2
Au     10.220000     4.214657     11.920850     L2
Au     14.600000     11.801040     11.920850     L2
Au     4.380000     4.214657     11.920850     L2
Au     13.140000     4.214657     11.920850     L2
Au     8.760000     11.801040     11.920850     L2
Au     17.520000     11.801040     11.920850     L2
Au     7.300000     4.214657     11.920850     L2
Au     16.059999     4.214657     11.920850     L2
Au     11.680000     11.801040     11.920850     L2
Au     20.440001     11.801040     11.920850     L2
Au     11.680000     6.743451     11.920850     L2
Au     5.840000     6.743451     11.920850     L2
Au     14.600000     6.743451     11.920850     L2
Au     8.760000     6.743451     11.920850     L2
Au     17.520000     6.743451     11.920850     L2
Au     0.000000     0.000000     14.305019     L1
Au     8.760000     0.000000     14.305019     L1
Au     4.380000     7.586382     14.305019     L1
Au     13.140000     7.586382     14.305019     L1
Au     2.920000     0.000000     14.305019     L1
Au     11.680000     0.000000     14.305019     L1
Au     7.300000     7.586382     14.305019     L1
Au     16.059999     7.586382     14.305019     L1
Au     5.840000     0.000000     14.305019     L1
Au     10.220000     7.586382     14.305019     L1
Au     1.460000     2.528794     14.305019     L1
Au     10.220000     2.528794     14.305019     L1
Au     5.840000     10.115176     14.305019     L1
Au     14.600000     10.115176     14.305019     L1
Au     4.380000     2.528794     14.305019     L1
Au     13.140000     2.528794     14.305019     L1
Au     8.760000     10.115176     14.305019     L1
Au     17.520000     10.115176     14.305019     L1
Au     7.300000     2.528794     14.305019     L1
Au     11.680000     10.115176     14.305019     L1
Au     2.920000     5.057588     14.305019     L1
Au     11.680000     5.057588     14.305019     L1
Au     5.840000     5.057588     14.305019     L1
Au     14.600000     5.057588     14.305019     L1
Au     8.760000     5.057588     14.305019     L1
Au     1.460000     0.842931     16.689190     L1
Au     10.220000     0.842931     16.689190     L1
Au     5.840000     8.429314     16.689190     L1
Au     14.600000     8.429314     16.689190     L1
Au     4.380000     0.842931     16.689190     L1
Au     13.140000     0.842931     16.689190     L1
Au     8.760000     8.429314     16.689190     L1
Au     17.520000     8.429314     16.689190     L1
Au     7.300000     0.842931     16.689190     L1
Au     11.680000     8.429314     16.689190     L1
Au     2.920000     3.371726     16.689190     L1
Au     11.680000     3.371726     16.689190     L1
Au     7.300000     10.958108     16.689190     L1
Au     16.059999     10.958108     16.689190     L1
Au     5.840000     3.371726     16.689190     L1
Au     14.600000     3.371726     16.689190     L1
Au     10.220000     10.958108     16.689190     L1
Au     18.980000     10.958108     16.689190     L1
Au     8.760000     3.371726     16.689190     L1
Au     13.140000     10.958108     16.689190     L1
Au     4.380000     5.900520     16.689190     L1
Au     13.140000     5.900520     16.689190     L1
Au     7.300000     5.900520     16.689190     L1
Au     16.059999     5.900520     16.689190     L1
Au     10.220000     5.900520     16.689190     L1
Au     8.760000     1.685863     19.073360     L1
Au     13.140000     9.272245     19.073360     L1
Au     2.920000     1.685863     19.073360     L1
Au     11.680000     1.685863     19.073360     L1
Au     7.300000     9.272245     19.073360     L1
Au     16.059999     9.272245     19.073360     L1
Au     5.840000     1.685863     19.073360     L1
Au     14.600000     1.685863     19.073360     L1
Au     10.220000     9.272245     19.073360     L1
Au     18.980000     9.272245     19.073360     L1
Au     10.220000     4.214657     19.073360     L1
Au     14.600000     11.801040     19.073360     L1
Au     4.380000     4.214657     19.073360     L1
Au     13.140000     4.214657     19.073360     L1
Au     8.760000     11.801040     19.073360     L1
Au     17.520000     11.801040     19.073360     L1
Au     7.300000     4.214657     19.073360     L1
Au     16.059999     4.214657     19.073360     L1
Au     11.680000     11.801040     19.073360     L1
Au     20.440001     11.801040     19.073360     L1
Au     11.680000     6.743451     19.073360     L1
Au     5.840000     6.743451     19.073360     L1
Au     14.600000     6.743451     19.073360     L1
Au     8.760000     6.743451     19.073360     L1
Au     17.520000     6.743451     19.073360     L1
Au    0.0000000000    0.0000000000    21.2190701642    L0
Au    8.7600000000    0.0000000000    21.2189408595    L0
Au    4.3800000000    7.5863820000    21.2196725776    L0
Au    13.1400000000    7.5863820000    21.2190730352    L0
Au    2.9200000000    0.0000000000    21.2190329871    L0
Au    11.6800000000    0.0000000000    21.2187334009    L0
Au    7.3000000000    7.5863820000    21.2211197878    L0
Au    16.0599990000    7.5863820000    21.2197047868    L0
Au    5.8400000000    0.0000000000    21.219466672    L0
Au    10.2200000000    7.5863820000    21.2204320666    L0
Au    1.4600000000    2.5287940000    21.2192576384    L0
Au    10.2200000000    2.5287940000    21.2189744429    L0
Au    5.8400000000    10.1151760000    21.2193609959    L0
Au    14.6000000000    10.1151760000    21.2195973122    L0
Au    4.3800000000    2.5287940000    21.2194392602    L0
Au    13.1400000000    2.5287940000    21.2184231742    L0
Au    8.7600000000    10.1151760000    21.2192325896    L0
Au    17.5200000000    10.1151760000    21.2194808127    L0
Au    7.3000000000    2.5287940000    21.2198870127    L0
Au    11.6800000000    10.1151760000    21.218674385    L0
Au    2.9200000000    5.0575880000    21.2194777565    L0
Au    11.6800000000    5.0575880000    21.2193721273    L0
Au    5.8400000000    5.0575880000    21.2212887817    L0
Au    14.6000000000    5.0575880000    21.2192488564    L0
Au    8.7600000000    5.0575880000    21.2208796261    L0
Au    1.4600000000    0.8429310000    23.841936191000002    L0
Au    10.2200000000    0.8429310000    23.8418459262    L0
Au    5.8400000000    8.4293140000    23.842755487    L0
Au    14.6000000000    8.4293140000    23.8424089083    L0
Au    4.3800000000    0.8429310000    23.8417888237    L0
Au    13.1400000000    0.8429310000    23.841945250800002    L0
Au    8.7600000000    8.4293140000    23.8427662652    L0
Au    17.5200000000    8.4293140000    23.8419025991    L0
Au    7.3000000000    0.8429310000    23.8421094385    L0
Au    11.6800000000    8.4293140000    23.8411056118    L0
Au    2.9200000000    3.3717260000    23.8417330998    L0
Au    11.6800000000    3.3717260000    23.839714721100002    L0
Au    7.3000000000    10.9581080000    23.842106052600002    L0
Au    16.0599990000    10.9581080000    23.841903557400002    L0
Au    5.8400000000    3.3717260000    23.8426096382    L0
Au    14.6000000000    3.3717260000    23.8417841486    L0
Au    10.2200000000    10.9581080000    23.8421994133    L0
Au    18.9800000000    10.9581080000    23.8417765561    L0
Au    8.7600000000    3.3717260000    23.8410855753    L0
Au    13.1400000000    10.9581080000    23.8421079948    L0
Au    4.3800000000    5.9005200000    23.8422024012    L0
Au    13.1400000000    5.9005200000    23.8409638606    L0
Au    7.3000000000    5.9005200000    23.8440592272    L0
Au    16.0599990000    5.9005200000    23.8419933076    L0
Au    10.2200000000    5.9005200000    23.8398492456    L0
Au    8.7600000000    1.6858630000    26.4655919098    L0
Au    13.1400000000    9.2722450000    26.4656397918    L0
Au    2.9200000000    1.6858630000    26.4642760155    L0
Au    11.6800000000    1.6858630000    26.4660848259    L0
Au    7.3000000000    9.2722450000    26.466682793700002    L0
Au    16.0599990000    9.2722450000    26.464452508    L0
Au    5.8400000000    1.6858630000    26.4643227386    L0
Au    14.6000000000    1.6858630000    26.4650868373    L0
Au    10.2200000000    9.2722450000    26.4685785327    L0
Au    18.9800000000    9.2722450000    26.464489639900002    L0
Au    10.2200000000    4.2146570000    26.453742713    L0
Au    14.6000000000    11.8010400000    26.4645728085    L0
Au    4.3800000000    4.2146570000    26.4639619736    L0
Au    13.1400000000    4.2146570000    26.4652836873    L0
Au    8.7600000000    11.8010400000    26.465530735    L0
Au    17.5200000000    11.8010400000    26.4647835857    L0
Au    7.3000000000    4.2146570000    26.4662858204    L0
Au    16.0599990000    4.2146570000    26.4642507161    L0
Au    11.6800000000    11.8010400000    26.4649324966    L0
Au    20.4400010000    11.8010400000    26.4648591415    L0
Au    11.6800000000    6.7434510000    26.4573653773    L0
Au    5.8400000000    6.7434510000    26.465168616    L0
Au    14.6000000000    6.7434510000    26.4648368698    L0
Au    8.7600000000    6.7434510000    26.4609179011    L0
Au    17.5200000000    6.7434510000    26.4640626376    L0
C    10.1280757062    5.8108728168    30.2750250694    S
C    10.1624606255    4.7178396953    31.1446901973    S
C    9.7896839103    4.8765569336    32.4814220524    S
C    9.3754268312    6.1238901865    32.9740319981    S
C    9.7118806864    7.0582531096    30.7478340906    S
C    9.3400721404    7.2100561984    32.085713593    S
C    10.7181822965    7.4683335504    39.0976927185    S
H    9.8145460143    4.0173530338    33.1556705796    S
H    10.4216849908    5.6906723066    29.2305249091    S
H    9.6742154546    7.9137769854    30.0711781569    S
H    9.0116439359    8.1866077346    32.4488214266    S
H    10.4768639745    3.7388165903    30.7797816132    S
C    10.7482251581    6.3844850259    39.9890166359    S
C    10.3743113444    6.5411404505    41.325745941600005    S
C    9.9606366277    7.7910089094    41.7941543199    S
C    9.9310313163    8.8816648447    40.9213778518    S
C    10.3065706027    8.7181934570    39.5859859289    S
H    10.4080452230    5.6874366364    42.004905853400004    S
H    11.0741740091    5.4058766666    39.6292472552    S
H    9.6185966034    9.8625951956    41.2828374766    S
H    10.2860323280    9.5756060159    38.909346591399995    S
H    9.6653316017    7.9149857016    42.8378249205    S
C    9.0198503571    6.3023166961    34.430511078500004    S
C    11.0760995862    7.2850571936    37.6424062446    S
C    9.8677307472    6.8882444782    36.7736205359    S
C    10.2283125444    6.7007026148    35.2984964809    S
H    9.0851647866    7.6591903073    36.8711744032    S
H    9.4279916440    5.9583904105    37.1714349729    S
H    10.6667781784    7.6310069923    34.9003753151    S
H    11.0117110132    5.9306027189    35.2007687774    S
H    8.5893228524    5.3669994490    34.8229153841    S
H    8.2384914105    7.0730482071    34.5285390676    S
H    11.8552375343    6.5116621260    37.547710948    S
H    11.5101667767    8.2180742987    37.248428313299996    S
Au    8.7600020000    1.6858630000    45.603161448099996    R0
Au    13.1400000000    9.2722460000    45.6017492606    R0
Au    2.9200000000    1.6858630000    45.603402053500005    R0
Au    11.6800000000    1.6858630000    45.6027251709    R0
Au    7.3000000000    9.2722460000    45.603514155599996    R0
Au    16.0599990000    9.2722460000    45.604167113100004    R0
Au    5.8400010000    1.6858630000    45.6037320895    R0
Au    14.6000000000    1.6858630000    45.6034966105    R0
Au    10.2200000000    9.2722460000    45.6122122674    R0
Au    18.9800000000    9.2722460000    45.603799544699996    R0
Au    10.2200010000    4.2146570000    45.5985459204    R0
Au    14.6000000000    11.8010400000    45.603910885000005    R0
Au    4.3800000000    4.2146570000    45.6038815486    R0
Au    13.1400000000    4.2146570000    45.6017363589    R0
Au    8.7600000000    11.8010400000    45.6019655554    R0
Au    17.5200000000    11.8010400000    45.6037909837    R0
Au    7.3000000000    4.2146570000    45.6023310673    R0
Au    16.0599990000    4.2146570000    45.6040169309    R0
Au    11.6800000000    11.8010400000    45.603030724700005    R0
Au    20.4400010000    11.8010400000    45.6030336714    R0
Au    11.6800000000    6.7434510000    45.602737961    R0
Au    5.8400000000    6.7434510000    45.603457413    R0
Au    14.6000000000    6.7434510000    45.603760547    R0
Au    8.7600000000    6.7434510000    45.6148773465    R0
Au    17.5200000000    6.7434510000    45.6041869155    R0
Au    1.4600000000    0.8429310000    48.226384380300004    R0
Au    10.2200000000    0.8429310000    48.2261288441    R0
Au    5.8400010000    8.4293140000    48.2258638215    R0
Au    14.6000000000    8.4293140000    48.2248843647    R0
Au    4.3800000000    0.8429310000    48.2262674942    R0
Au    13.1400010000    0.8429310000    48.226203887    R0
Au    8.7600000000    8.4293140000    48.2288810721    R0
Au    17.5200000000    8.4293140000    48.2263328042    R0
Au    7.3000010000    0.8429310000    48.2262588667    R0
Au    11.6800000000    8.4293140000    48.2247127419    R0
Au    2.9200000000    3.3717260000    48.2263006492    R0
Au    11.6800010000    3.3717260000    48.225116694899995    R0
Au    7.3000000000    10.9581090000    48.2261539119    R0
Au    16.0599980000    10.9581090000    48.226206223000005    R0
Au    5.8400000000    3.3717260000    48.2258737998    R0
Au    14.6000000000    3.3717260000    48.2260978429    R0
Au    10.2200000000    10.9581090000    48.2277753045    R0
Au    18.9800000000    10.9581090000    48.2260922505    R0
Au    8.7600000000    3.3717260000    48.2253027266    R0
Au    13.1399990000    10.9581090000    48.2250282823    R0
Au    4.3800000000    5.9005200000    48.2261303759    R0
Au    13.1400000000    5.9005200000    48.224730548400004    R0
Au    7.3000000000    5.9005200000    48.2285036664    R0
Au    16.0599990000    5.9005200000    48.226259087    R0
Au    10.2200000000    5.9005200000    48.2261171657    R0
Au    0.0000000000    0.0000000000    50.8494522112    R0
Au    8.7600000000    0.0000000000    50.848574076999995    R0
Au    4.3800000000    7.5863820000    50.8484427597    R0
Au    13.1399990000    7.5863820000    50.8460000014    R0
Au    2.9200000000    0.0000000000    50.849705063200005    R0
Au    11.6800000000    0.0000000000    50.8486126675    R0
Au    7.3000000000    7.5863820000    50.8488546473    R0
Au    16.0599990000    7.5863820000    50.8482045212    R0
Au    5.8400000000    0.0000000000    50.8485572892    R0
Au    10.2200000000    7.5863820000    50.8475112614    R0
Au    1.4600000000    2.5287940000    50.8488709441    R0
Au    10.2200000000    2.5287940000    50.848853118899996    R0
Au    5.8400000000    10.1151760000    50.8487611403    R0
Au    14.6000000000    10.1151760000    50.847584143    R0
Au    4.3800000000    2.5287940000    50.848441878399996    R0
Au    13.1400000000    2.5287940000    50.848961618299995    R0
Au    8.7600000000    10.1151760000    50.8486316133    R0
Au    17.5200000000    10.1151760000    50.8486102701    R0
Au    7.3000000000    2.5287940000    50.848782322800005    R0
Au    11.6800000000    10.1151760000    50.8472319767    R0
Au    2.9200000000    5.0575880000    50.8485079423    R0
Au    11.6800000000    5.0575880000    50.847190275399996    R0
Au    5.8400000000    5.0575880000    50.8492154003    R0
Au    14.6000000000    5.0575880000    50.8483633252    R0
Au    8.7600000000    5.0575880000    50.848451082    R0
Au    8.760002    1.685863   52.994628599488664 R1
Au   13.140000    9.272246   52.994628599488664 R1
Au    2.920000    1.685863   52.994628599488664 R1
Au   11.680000    1.685863   52.994628599488664 R1
Au    7.300000    9.272246   52.994628599488664 R1
Au   16.059999    9.272246   52.994628599488664 R1
Au    5.840001    1.685863   52.994628599488664 R1
Au   14.600000    1.685863   52.994628599488664 R1
Au   10.220000    9.272246   52.994628599488664 R1
Au   18.980000    9.272246   52.994628599488664 R1
Au   10.220001    4.214657   52.994628599488664 R1
Au   14.600000   11.801040   52.994628599488664 R1
Au    4.380000    4.214657   52.994628599488664 R1
Au   13.140000    4.214657   52.994628599488664 R1
Au    8.760000   11.801040   52.994628599488664 R1
Au   17.520000   11.801040   52.994628599488664 R1
Au    7.300000    4.214657   52.994628599488664 R1
Au   16.059999    4.214657   52.994628599488664 R1
Au   11.680000   11.801040   52.994628599488664 R1
Au   20.440001   11.801040   52.994628599488664 R1
Au   11.680000    6.743451   52.994628599488664 R1
Au    5.840000    6.743451   52.994628599488664 R1
Au   14.600000    6.743451   52.994628599488664 R1
Au    8.760000    6.743451   52.994628599488664 R1
Au   17.520000    6.743451   52.994628599488664 R1
Au    1.460000    0.842931   55.37879859948866 R1
Au   10.220000    0.842931   55.37879859948866 R1
Au    5.840001    8.429314   55.37879859948866 R1
Au   14.600000    8.429314   55.37879859948866 R1
Au    4.380000    0.842931   55.37879859948866 R1
Au   13.140001    0.842931   55.37879859948866 R1
Au    8.760000    8.429314   55.37879859948866 R1
Au   17.520000    8.429314   55.37879859948866 R1
Au    7.300001    0.842931   55.37879859948866 R1
Au   11.680000    8.429314   55.37879859948866 R1
Au    2.920000    3.371726   55.37879859948866 R1
Au   11.680001    3.371726   55.37879859948866 R1
Au    7.300000   10.958109   55.37879859948866 R1
Au   16.059998   10.958109   55.37879859948866 R1
Au    5.840000    3.371726   55.37879859948866 R1
Au   14.600000    3.371726   55.37879859948866 R1
Au   10.220000   10.958109   55.37879859948866 R1
Au   18.980000   10.958109   55.37879859948866 R1
Au    8.760000    3.371726   55.37879859948866 R1
Au   13.139999   10.958109   55.37879859948866 R1
Au    4.380000    5.900520   55.37879859948866 R1
Au   13.140000    5.900520   55.37879859948866 R1
Au    7.300000    5.900520   55.37879859948866 R1
Au   16.059999    5.900520   55.37879859948866 R1
Au   10.220000    5.900520   55.37879859948866 R1
Au    0.000000    0.000000   57.762968599488666 R1
Au    8.760000    0.000000   57.762968599488666 R1
Au    4.380000    7.586382   57.762968599488666 R1
Au   13.139999    7.586382   57.762968599488666 R1
Au    2.920000    0.000000   57.762968599488666 R1
Au   11.680000    0.000000   57.762968599488666 R1
Au    7.300000    7.586382   57.762968599488666 R1
Au   16.059999    7.586382   57.762968599488666 R1
Au    5.840000    0.000000   57.762968599488666 R1
Au   10.220000    7.586382   57.762968599488666 R1
Au    1.460000    2.528794   57.762968599488666 R1
Au   10.220000    2.528794   57.762968599488666 R1
Au    5.840000   10.115176   57.762968599488666 R1
Au   14.600000   10.115176   57.762968599488666 R1
Au    4.380000    2.528794   57.762968599488666 R1
Au   13.140000    2.528794   57.762968599488666 R1
Au    8.760000   10.115176   57.762968599488666 R1
Au   17.520000   10.115176   57.762968599488666 R1
Au    7.300000    2.528794   57.762968599488666 R1
Au   11.680000   10.115176   57.762968599488666 R1
Au    2.920000    5.057588   57.762968599488666 R1
Au   11.680000    5.057588   57.762968599488666 R1
Au    5.840000    5.057588   57.762968599488666 R1
Au   14.600000    5.057588   57.762968599488666 R1
Au    8.760000    5.057588   57.762968599488666 R1
Au    8.760002    1.685863   60.14713859948866 R2
Au   13.140000    9.272246   60.14713859948866 R2
Au    2.920000    1.685863   60.14713859948866 R2
Au   11.680000    1.685863   60.14713859948866 R2
Au    7.300000    9.272246   60.14713859948866 R2
Au   16.059999    9.272246   60.14713859948866 R2
Au    5.840001    1.685863   60.14713859948866 R2
Au   14.600000    1.685863   60.14713859948866 R2
Au   10.220000    9.272246   60.14713859948866 R2
Au   18.980000    9.272246   60.14713859948866 R2
Au   10.220001    4.214657   60.14713859948866 R2
Au   14.600000   11.801040   60.14713859948866 R2
Au    4.380000    4.214657   60.14713859948866 R2
Au   13.140000    4.214657   60.14713859948866 R2
Au    8.760000   11.801040   60.14713859948866 R2
Au   17.520000   11.801040   60.14713859948866 R2
Au    7.300000    4.214657   60.14713859948866 R2
Au   16.059999    4.214657   60.14713859948866 R2
Au   11.680000   11.801040   60.14713859948866 R2
Au   20.440001   11.801040   60.14713859948866 R2
Au   11.680000    6.743451   60.14713859948866 R2
Au    5.840000    6.743451   60.14713859948866 R2
Au   14.600000    6.743451   60.14713859948866 R2
Au    8.760000    6.743451   60.14713859948866 R2
Au   17.520000    6.743451   60.14713859948866 R2
Au    1.460000    0.842931   62.53130859948866 R2
Au   10.220000    0.842931   62.53130859948866 R2
Au    5.840001    8.429314   62.53130859948866 R2
Au   14.600000    8.429314   62.53130859948866 R2
Au    4.380000    0.842931   62.53130859948866 R2
Au   13.140001    0.842931   62.53130859948866 R2
Au    8.760000    8.429314   62.53130859948866 R2
Au   17.520000    8.429314   62.53130859948866 R2
Au    7.300001    0.842931   62.53130859948866 R2
Au   11.680000    8.429314   62.53130859948866 R2
Au    2.920000    3.371726   62.53130859948866 R2
Au   11.680001    3.371726   62.53130859948866 R2
Au    7.300000   10.958109   62.53130859948866 R2
Au   16.059998   10.958109   62.53130859948866 R2
Au    5.840000    3.371726   62.53130859948866 R2
Au   14.600000    3.371726   62.53130859948866 R2
Au   10.220000   10.958109   62.53130859948866 R2
Au   18.980000   10.958109   62.53130859948866 R2
Au    8.760000    3.371726   62.53130859948866 R2
Au   13.139999   10.958109   62.53130859948866 R2
Au    4.380000    5.900520   62.53130859948866 R2
Au   13.140000    5.900520   62.53130859948866 R2
Au    7.300000    5.900520   62.53130859948866 R2
Au   16.059999    5.900520   62.53130859948866 R2
Au   10.220000    5.900520   62.53130859948866 R2
Au    0.000000    0.000000   64.91547859948867 R2
Au    8.760000    0.000000   64.91547859948867 R2
Au    4.380000    7.586382   64.91547859948867 R2
Au   13.139999    7.586382   64.91547859948867 R2
Au    2.920000    0.000000   64.91547859948867 R2
Au   11.680000    0.000000   64.91547859948867 R2
Au    7.300000    7.586382   64.91547859948867 R2
Au   16.059999    7.586382   64.91547859948867 R2
Au    5.840000    0.000000   64.91547859948867 R2
Au   10.220000    7.586382   64.91547859948867 R2
Au    1.460000    2.528794   64.91547859948867 R2
Au   10.220000    2.528794   64.91547859948867 R2
Au    5.840000   10.115176   64.91547859948867 R2
Au   14.600000   10.115176   64.91547859948867 R2
Au    4.380000    2.528794   64.91547859948867 R2
Au   13.140000    2.528794   64.91547859948867 R2
Au    8.760000   10.115176   64.91547859948867 R2
Au   17.520000   10.115176   64.91547859948867 R2
Au    7.300000    2.528794   64.91547859948867 R2
Au   11.680000   10.115176   64.91547859948867 R2
Au    2.920000    5.057588   64.91547859948867 R2
Au   11.680000    5.057588   64.91547859948867 R2
Au    5.840000    5.057588   64.91547859948867 R2
Au   14.600000    5.057588   64.91547859948867 R2
Au    8.760000    5.057588   64.91547859948867 R2
Au    8.760002    1.685863   67.29964859948866 R3
Au   13.140000    9.272246   67.29964859948866 R3
Au    2.920000    1.685863   67.29964859948866 R3
Au   11.680000    1.685863   67.29964859948866 R3