      34
 i =       53, E =      -101.7257537966
  C         3.0376437262        9.7110727454       -4.0902144598
  C         3.6245927164       10.6806649552       -4.9078183359
  C         3.6377261054       10.5137005631       -6.2949006389
  C         3.0670813174        9.3795873699       -6.8927264354
  C         2.4625929450        8.5775615136       -4.6712773697
  C         2.4787149592        8.4162248708       -6.0588520713
  C         5.7446017771        7.2268196858      -12.3064468358
  H         4.0933625487       11.2793366889       -6.9273972797
  H         3.0232632171        9.8407165527       -3.0073476076
  H         1.9955610641        7.8182525646       -4.0421069335
  H         2.0215404200        7.5300234117       -6.5054865364
  H         4.0699021881       11.5726584290       -4.4644454318
  C         6.3279763088        8.1891183547      -13.1450393264
  C         6.3395706375        8.0239447835      -14.5322306426
  C         5.7651057615        6.8875194882      -15.1081317225
  C         5.1832103340        5.9189056853      -14.2857740721
  C         5.1744635789        6.0897316142      -12.8991450235
  H         6.8025535780        8.7826364111      -15.1651296412
  H         6.7845806478        9.0776492179      -12.7024877681
  H         4.7384688769        5.0246301692      -14.7251161308
  H         4.7227797628        5.3248291350      -12.2629485461
  H         5.7757837926        6.7549470275      -16.1906992473
  C         3.1242533770        9.1785965607       -8.3882584662
  C         5.6913719308        7.4319011524      -10.8112952119
  C         4.4353971493        8.1983454095      -10.3563810632
  C         4.3797162550        8.4106850131       -8.8421770049
  H         3.5385028788        7.6495740787      -10.6894234353
  H         4.4024707265        9.1730224920      -10.8714380267
  H         4.4110408414        7.4359094315       -8.3272373143
  H         5.2770839821        8.9583161440       -8.5085277198
  H         3.0994421335       10.1572525475       -8.8941392888
  H         2.2284129290        8.6305014973       -8.7220887264
  H         6.5869134919        7.9829490501      -10.4814809004
  H         5.7196907581        6.4547239096      -10.3027386947
