81
	Energy:    2240.0172445
C          0.13660       -0.58477        3.31965
C         -1.00429       -1.34551        3.42523
C         -0.65774       -2.69554        3.52209
C          0.73310       -2.77061        3.41945
C          1.19667       -1.46135        3.26070
C          2.31195       -1.14589        2.47221
C          2.90531       -2.14208        1.71309
C          2.46947       -3.49725        1.81861
C          1.51147       -3.97458        2.90896
C          0.62493       -5.06557        2.18779
C         -0.96903       -4.96824        2.30268
C         -1.62153       -3.80257        3.13950
C         -2.67997       -3.22527        2.20336
C         -2.98686       -1.83389        2.15484
C         -2.18750       -0.91087        2.80981
C         -2.19007        0.29042        2.08431
C         -2.98361        0.10695        0.96003
C         -3.46186       -1.20181        1.00193
C         -3.58408       -1.93344       -0.18297
C         -3.18537       -3.26125       -0.19141
C         -2.70481       -3.89815        0.98465
C         -1.69285       -4.87149        0.94878
C         -1.05977       -5.02178       -0.30840
C          0.31555       -5.09454       -0.41091
C          1.14291       -5.02546        0.73800
C          2.24211       -4.15861        0.61449
C          2.60252       -3.56235       -0.62523
C          3.13130       -2.28255       -0.68698
C          3.26381       -1.55217        0.49686
C          2.92151       -0.20047        0.51655
C          2.43656        0.43250       -0.65597
C          2.31054       -0.30079       -1.83846
C          2.66880       -1.67024       -1.85462
C          1.86774       -2.59350       -2.52239
C          1.84131       -3.76329       -1.75566
C          0.67171       -4.51858       -1.64294
C         -0.47061       -4.10668       -2.30654
C         -1.53659       -4.40411       -1.47772
C         -2.62600       -3.53152       -1.42110
C         -2.64653       -2.35922       -2.18414
C         -3.23974       -1.36339       -1.41086
C         -2.74460       -0.03804       -1.45832
C         -2.61683        0.69517       -0.27666
C         -1.45050        1.46170       -0.36747
C         -0.85462        1.19807       -1.60497
C         -1.65553        0.27126       -2.28024
C         -1.05515       -0.74093       -3.06931
C         -1.55138       -2.04825       -3.02182
C         -0.46813       -2.92361       -3.08846
C          0.69919       -2.16542       -3.18937
C          0.33754       -0.81391       -3.17303
C          1.14940        0.12562       -2.49059
C          0.55674        1.12482       -1.71096
C          1.35454        1.31590       -0.57805
C          0.75133        1.58125        0.67281
C         -0.64273        1.65369        0.77762
C         -1.01355        1.06964        1.99091
C          0.14616        0.63167        2.61695
C          1.23768        0.95243        1.82178
C          2.32854        0.05504        1.74491
C         -1.33837       -6.27151        3.01353
C          0.93646       -6.42862        2.84134
N         -0.27902       -7.25804        2.74460
H         -2.35793       -6.64714        2.77200
H         -1.32583       -6.04804        4.11061
H          1.12906       -6.21873        3.92152
H          1.84640       -6.92943        2.44320
C         -0.25808       -9.71044        3.29340
C          0.96798      -10.32503        2.99290
C          1.00076      -11.67190        2.60971
C         -0.18654      -12.40579        2.51642
C         -1.44528      -10.45825        3.19933
C         -1.40906      -11.79657        2.80584
H          1.89609       -9.77478        3.08602
H         -2.40001      -10.00628        3.44033
H         -2.32911      -12.36305        2.74027
H          1.94697      -12.15265        2.39849
H         -0.16065      -13.44863        2.22843
C         -0.30988       -8.30323        3.81345
H          0.48077       -8.18028        4.58839
H         -1.24433       -8.23422        4.41798
