81
	Energy:    1087.0217564
C          0.06313       -0.32534        3.46486
C         -1.11646       -1.18842        3.52980
C         -0.66851       -2.59013        3.51402
C          0.78288       -2.59157        3.43535
C          1.23825       -1.19348        3.40516
C          2.39446       -0.80985        2.57963
C          3.06515       -1.83085        1.78160
C          2.58865       -3.23033        1.82547
C          1.49764       -3.65891        2.70968
C          0.77891       -4.86774        2.12300
C         -0.81036       -4.86832        2.20485
C         -1.46132       -3.65787        2.87023
C         -2.63506       -3.21863        2.10193
C         -3.10555       -1.81558        2.10651
C         -2.34996       -0.79815        2.82933
C         -2.39485        0.44538        2.04834
C         -3.19255        0.19233        0.84268
C         -3.63654       -1.20516        0.88397
C         -3.70277       -1.99727       -0.35749
C         -3.23389       -3.38581       -0.35665
C         -2.69290       -3.99436        0.87896
C         -1.55131       -4.92245        0.86585
C         -0.87497       -5.09612       -0.43102
C          0.56864       -5.10660       -0.50631
C          1.37832       -4.93872        0.71431
C          2.51765       -4.01131        0.60593
C          2.92916       -3.40416       -0.67971
C          3.40162       -2.01695       -0.72993
C          3.46962       -1.22379        0.51087
C          3.03114        0.17614        0.51606
C          2.51197        0.78951       -0.72542
C          2.44514       -0.00009       -1.96212
C          2.89671       -1.40871       -1.96564
C          2.12247       -2.42807       -2.68358
C          2.15260       -3.66203       -1.88678
C          0.95783       -4.51435       -1.79607
C         -0.25883       -4.14312       -2.51855
C         -1.39476       -4.50473       -1.67255
C         -2.58884       -3.64740       -1.63822
C         -2.63654       -2.41439       -2.43447
C         -3.32658       -1.39140       -1.63964
C         -2.86959        0.01449       -1.68358
C         -2.80270        0.80363       -0.44662
C         -1.61504        1.66311       -0.52071
C         -0.94780        1.40500       -1.80289
C         -1.72313        0.38637       -2.52170
C         -1.02743       -0.64405       -3.32313
C         -1.48300       -2.03916       -3.27988
C         -0.29822       -2.90464       -3.32632
C          0.88916       -2.04584       -3.40406
C          0.43874       -0.64814       -3.39989
C          1.21953        0.37831       -2.67588
C          0.52883        1.40100       -1.88032
C          1.32758        1.65532       -0.67504
C          0.65554        1.91512        0.61680
C         -0.81060        1.91891        0.69373
C         -1.19954        1.31237        1.97324
C          0.02589        0.93061        2.68455
C          1.17258        1.30633        1.84879
C          2.36474        0.43337        1.79840
C         -1.11515       -6.15193        3.00288
C          1.16387       -6.13154        2.90925
N          0.02908       -7.06016        2.82320
H         -2.10862       -6.60458        2.79260
H         -1.12843       -5.89631        4.08867
H          1.25138       -5.86322        3.98900
H          2.14796       -6.57479        2.63684
C         -0.27405       -9.29087        1.88908
C          0.67720      -10.27644        1.56854
C          0.43150      -11.61989        1.86909
C         -0.76387      -11.99203        2.48888
C         -1.47443       -9.67654        2.51153
C         -1.71604      -11.02130        2.80902
H          1.61022      -10.00805        1.08866
H         -2.22522       -8.94139        2.76585
H         -2.64253      -11.31081        3.28799
H          1.16860      -12.37285        1.62136
H         -0.95251      -13.03238        2.72050
C         -0.01081       -7.84268        1.56737
H         -0.80256       -7.49331        0.87394
H          0.95604       -7.76368        1.02147
