      81
 i =      203, E =      -418.1821280397
  C         7.1688841616        0.3206727315       18.1907041322
  C         8.5871286349        0.4316996608       17.9249504911
  C         8.7683473389        0.7027627540       16.5152324478
  C         7.4329355846        0.7607986820       15.8969361290
  C         6.4598179154        0.5250328902       16.9420667629
  C         5.2380906157        1.2072632473       16.9432052796
  C         4.9663620463        2.1683389029       15.9024681811
  C         5.9322299235        2.4027887088       14.9126301297
  C         7.1692825011        1.6717450393       14.8911158945
  C         8.2450852584        2.4654429457       14.1570360362
  C         9.6999002085        2.3957347058       14.8254231436
  C         9.7724204601        1.5527028599       16.0940648680
  C        10.6086344750        2.1862719854       17.0745921824
  C        10.4679373600        1.9141355140       18.4430397495
  C         9.4302116461        1.0139086900       18.8795539476
  C         8.8839228855        1.5209232529       20.1228811440
  C         9.5907432428        2.7465942666       20.4547326292
  C        10.5725203784        2.9888114806       19.4135216543
  C        10.8275051209        4.2915368215       18.9816079393
  C        10.9874848988        4.5703879478       17.5651405180
  C        10.8754088559        3.5366504752       16.6260291269
  C        10.2108533647        3.7332380913       15.3649495231
  C         9.6161099586        4.9557191124       15.1110988493
  C         8.2791612423        5.0187651861       14.4934472421
  C         7.6073482035        3.8553175340       14.1655675891
  C         6.2021929334        3.7548183815       14.4648396526
  C         5.4944506810        4.8298372089       15.0234953093
  C         4.5078821934        4.5879820537       16.0626492851
  C         4.2519339500        3.2847898800       16.4943269010
  C         4.0868434478        3.0056634802       17.9085786043
  C         4.1818988420        4.0404976455       18.8433203091
  C         4.4490046361        5.3955929150       18.3957949846
  C         4.6079880243        5.6633143064       17.0316536439
  C         5.6562489788        6.5644911277       16.5874290213
  C         6.1964353520        6.0492072668       15.3447797387
  C         7.5727973809        6.1320396399       15.0919521893
  C         8.4478038057        6.7545237669       16.0665363344
  C         9.7029860782        6.0296700253       16.0761322196
  C        10.3892975108        5.8485114355       17.2840589894
  C         9.8443037496        6.3695130538       18.5223917294
  C        10.1171431170        5.4074669117       19.5761799071
  C         9.1684179377        5.1771298651       20.5786515262
  C         8.8992442776        3.8206797205       21.0263216086
  C         7.4757479205        3.7092704215       21.2888200864
  C         6.8648597043        4.9963745218       21.0055152048
  C         7.9112456782        5.9026055707       20.5656672075
  C         7.6514633738        6.8300254515       19.5502089087
  C         8.6329026097        7.0650753373       18.5116116103
  C         7.9243826854        7.2633729403       17.2588403770
  C         6.5039109359        7.1592970189       17.5272830857
  C         6.3336658859        6.8875748286       18.9395828070
  C         5.3244052737        6.0207558554       19.3690394065
  C         5.5958759612        5.0552096685       20.4187073809
  C         4.8878144847        3.8303673994       20.0928971495
  C         5.4764200401        2.5894799929       20.3608204589
  C         6.7958802344        2.5272263765       20.9711447571
  C         7.5116976756        1.4162437483       20.3762657747
  C         6.6392079407        0.7965842327       19.3938786044
  C         5.3794956287        1.5181050312       19.3905548280
  C         4.6960822215        1.7199222983       18.1863905908
  C        10.5883822148        1.7849873427       13.6501449381
  C         8.5112587606        1.8928926192       12.6974434403
  N         9.9212539956        2.0713919236       12.3902663708
  H        11.6154557306        2.1705557142       13.6681815412
  H        10.6266281600        0.6947607092       13.7986614068
  H         8.2922911643        0.8143624970       12.7218579702
  H         7.8637544214        2.3566775838       11.9447558155
  C         9.5168250642        3.6722099060       10.5372401866
  C         8.6988485181        4.8077443082       10.4744291259
  C         7.9106062865        5.0669140778        9.3548750563
  C         7.9082117632        4.1699428491        8.2704334323
  C         9.5529747327        2.8112264092        9.4264135290
  C         8.7605629753        3.0502116543        8.3078950014
  H         8.6636730222        5.4930717775       11.3231150751
  H        10.1906462471        1.9262846952        9.4556813782
  H         8.7775123114        2.3572875492        7.4653442240
  H         7.2695624189        5.9478909205        9.3259755487
  S         6.6707618248        4.4282151847        7.0374791105
  C        10.3054595324        3.3709752141       11.7874985585
  H        11.3778620361        3.2905116155       11.5460238748
  H        10.2004656175        4.2175729888       12.4886990251
