     117
 i =      402, E =     -1614.5588022613
 Au         1.6649000000        0.0000000000        0.0000000000
 Au         6.6598000000        0.0000000000        0.0000000000
 Au         4.1623000000        1.4419000000        0.0000000000
 Au         9.1572000000        1.4419000000        0.0000000000
 Au         6.6598000000        2.8838000000        0.0000000000
 Au        11.6546000000        2.8838000000        0.0000000000
 Au         4.1623000000        4.3256000000        0.0000000000
 Au         9.1572000000        4.3256000000        0.0000000000
 Au         6.6598000000        5.7675000000        0.0000000000
 Au        11.6546000000        5.7675000000        0.0000000000
 Au         9.1572000000        7.2094000000        0.0000000000
 Au        14.1520000000        7.2094000000        0.0000000000
 Au         3.3299000000        0.0000000000        2.3546000000
 Au         8.3247000000        0.0000000000        2.3546000000
 Au         5.8273000000        1.4419000000        2.3546000000
 Au        10.8221000000        1.4419000000        2.3546000000
 Au         8.3247000000        2.8838000000        2.3546000000
 Au        13.3195000000        2.8838000000        2.3546000000
 Au         5.8273000000        4.3256000000        2.3546000000
 Au        10.8221000000        4.3256000000        2.3546000000
 Au         8.3247000000        5.7675000000        2.3546000000
 Au        13.3195000000        5.7675000000        2.3546000000
 Au        10.8221000000        7.2094000000        2.3546000000
 Au        15.8169000000        7.2094000000        2.3546000000
 Au         0.0000000000        0.0000000000        4.7091000000
 Au         4.9948000000        0.0000000000        4.7091000000
 Au         2.4974000000        1.4419000000        4.7091000000
 Au         7.4922000000        1.4419000000        4.7091000000
 Au         4.9948000000        2.8838000000        4.7091000000
 Au         9.9896000000        2.8838000000        4.7091000000
 Au         2.4974000000        4.3256000000        4.7091000000
 Au         7.4922000000        4.3256000000        4.7091000000
 Au         4.9948000000        5.7675000000        4.7091000000
 Au         9.9896000000        5.7675000000        4.7091000000
 Au         7.4922000000        7.2094000000        4.7091000000
 Au        12.4870000000        7.2094000000        4.7091000000
  H        10.4475724838        3.7008488247       11.5244559324
  C        10.2637613281        4.3343032189       10.6547643233
  C        10.4709567608        5.7164758927       10.7489791814
  C        10.2222938555        6.5121743759        9.6171219764
  H        10.3736177524        7.5914571866        9.6749663704
  C         9.7809941549        5.9449865016        8.4240820152
  H         9.5970122902        6.5741830124        7.5516534177
  C         9.5772992344        4.5573743056        8.3415922029
  C         9.8242660069        3.7527575597        9.4680211753
  H         9.6685788723        2.6756050008        9.4076217359
  C        10.9637820507        6.3175535393       12.0409051246
  N        10.0096429058        7.2776707236       12.6414554293
  H        11.8905407000        6.8839270017       11.8552246141
  H        11.2250822924        5.5027788137       12.7400481550
  C        10.4595774335        7.8324132440       13.9026574752
  C         8.6650871517        6.7941872315       12.8916465112
  C         7.6394746129        6.8239917112       20.6875451975
  C         7.1699339488        5.5343555089       21.1565950240
  C         8.3257363803        4.7353841239       21.5135635174
  C         9.5185121676        5.5309699366       21.2675767301
  C         9.0925983380        6.8208290473       20.7506994686
  C         9.8375934599        7.4499922779       19.7489925059
  C        11.0413669722        6.8271001941       19.2299629504
  C        11.4549033458        5.5863697458       19.7330220472
  C        10.6731632709        4.9258477650       20.7654249013
  C        10.6833983903        3.4975893562       20.4881357721
  C         9.5372024482        2.7323254305       20.7221670075
  C         8.3355759404        3.3613733496       21.2462375234
  C         7.1892659505        2.7357459432       20.6169829842
  C         6.0702963590        3.5043812850       20.2753669907
  C         6.0593980810        4.9282919377       20.5471062412
  C         5.3837250452        5.5928054564       19.4490965649
  C         4.9787049686        4.5754339269       18.4918610063
  C         5.3975130059        3.2816242988       19.0049140963
  C         5.8655474992        2.3014018388       18.1263571456
  C         7.0281193571        1.5018584883       18.4819545792
  C         7.6772799728        1.7171495764       19.7012423530
  C         9.1290380523        1.7178951713       19.7650403321
  C         9.8790381611        1.5127140743       18.6028359271
  C        11.0668419561        2.3126524044       18.3561968900
  C        11.4671924317        3.2835233489       19.2844200057
  C        11.9432019872        4.5722358282       18.8192709430
  C        11.9983627351        4.8414246331       17.4458947313
  C        11.5691320770        6.1273063758       16.9254678486
  C        11.1115500482        7.1014170214       17.8067475262
  C         9.9285955164        7.8868986986       17.4396919311
  C         9.3005516559        7.6858299219       16.2203143264
  C         9.9166324789        6.8857877176       15.0715975608
  C        10.9186493442        5.9198408135       15.6366664743
  C        10.8937957852        4.5397595197       15.3966212034
  C        11.5742134643        3.8428256839       16.4943736541
  C        11.1227009606        2.6043259524       16.9388194917
  C         9.9655169133        1.9712568281       16.3033567817
  C         9.2048006194        1.2954970886       17.3342310525
  C         7.8042510362        1.2824777504       17.2741580917
  C         7.1249811005        1.9409272673       16.1745423472
  C         5.9277873580        2.5691889455       16.6988043406
  C         5.5296077106        3.8187483277       16.2042902793
  C         5.0502216426        4.8372305461       17.1204365754
  C         5.5373275591        6.1247131852       16.6551922593
  C         6.3145827852        5.9145940977       15.4541407213
  C         6.3021953764        4.4763787223       15.1671366716
  C         7.4585201413        3.8824876483       14.6721877093
  C         7.8710677598        2.5867851157       15.1805766218
  C         9.3127799514        2.6055386458       15.2518757469
  C         9.7622447897        3.9192071934       14.7749091049
  C         8.6478305299        4.6783143142       14.4001196488
  C         8.6300429721        6.1767842520       14.3652338455
  C         7.4465254759        6.6748306386       15.1982561137
  C         7.8679817886        7.6492437760       16.1636486709
  C         7.0993979899        7.8881830151       17.3268882813
  C         5.9101083697        7.1096631957       17.5762115274
  C         5.8349005792        6.8381799423       18.9995808267
  C         6.9850812540        7.4659869363       19.6309337453
  C         7.7578070359        8.1182604768       18.5906531435
  C         9.1557458766        8.0993114289       18.6426547870
  H         8.3460659775        6.0721405764       12.1320779922
  H         7.9664323819        7.6445135671       12.8749361548
  S         8.9631576579        3.7022202227        6.9121729902
  H        10.0073112020        8.8252166862       14.0511023964
  H        11.5503369805        7.9408114706       13.9326195455
Au      8.324700    5.767500    45.4192882128 R0
Au      1.664900    0.000000    47.773891212799995 R0
Au      6.659800    0.000000    47.773891212799995 R0
Au      4.162300    1.441900    47.773891212799995 R0
Au      9.157200    1.441900    47.773891212799995 R0
Au      6.659800    2.883800    47.773891212799995 R0
Au      11.654600    2.883800    47.773891212799995 R0
Au      4.162300    4.325600    47.773891212799995 R0
Au      9.157200    4.325600    47.773891212799995 R0
Au      6.659800    5.767500    47.773891212799995 R0
Au      11.654600    5.767500    47.773891212799995 R0
Au      9.157200    7.209400    47.773891212799995 R0
Au      14.152000    7.209400    47.773891212799995 R0
Au      3.329900    0.000000    50.128493212799995 R0
Au      8.324700    0.000000    50.128493212799995 R0
Au      5.827300    1.441900    50.128493212799995 R0
Au      10.822100    1.441900    50.128493212799995 R0
Au      8.324700    2.883800    50.128493212799995 R0
Au      13.319500    2.883800    50.128493212799995 R0
Au      5.827300    4.325600    50.128493212799995 R0
Au      10.822100    4.325600    50.128493212799995 R0
Au      8.324700    5.767500    50.128493212799995 R0
Au      13.319500    5.767500    50.128493212799995 R0
Au      10.822100    7.209400    50.128493212799995 R0
Au      15.816900    7.209400    50.128493212799995 R0
Au      0.000000    0.000000    52.4828902128 R0
Au      4.994800    0.000000    52.483089212799996 R0
Au      2.497400    1.441900    52.483089212799996 R0
Au      7.492200    1.441900    52.483089212799996 R0
Au      4.994800    2.883800    52.483089212799996 R0
Au      9.989600    2.883800    52.483089212799996 R0
Au      2.497400    4.325600    52.483089212799996 R0
Au      7.492200    4.325600    52.483089212799996 R0
Au      4.994800    5.767500    52.483089212799996 R0
Au      9.989600    5.767500    52.483089212799996 R0
Au      7.492200    7.209400    52.483089212799996 R0
Au      12.487000    7.209400    52.483089212799996 R0
Au      1.664900    0.000000    54.8375922128 R1
Au      6.659800    0.000000    54.8375922128 R1
Au      4.162300    1.441900    54.8375922128 R1
Au      9.157200    1.441900    54.8375922128 R1
Au      6.659800    2.883800    54.8375922128 R1
Au      11.654600    2.883800    54.8375922128 R1
Au      4.162300    4.325600    54.8375922128 R1
Au      9.157200    4.325600    54.8375922128 R1
Au      6.659800    5.767500    54.8375922128 R1
Au      11.654600    5.767500    54.8375922128 R1
Au      9.157200    7.209400    54.8375922128 R1
Au      14.152000    7.209400    54.8375922128 R1
Au      3.329900    0.000000    57.1921912128 R1
Au      8.324700    0.000000    57.1921912128 R1
Au      5.827300    1.441900    57.1921912128 R1
Au      10.822100    1.441900    57.1921912128 R1
Au      8.324700    2.883800    57.1921912128 R1
Au      13.319500    2.883800    57.1921912128 R1
Au      5.827300    4.325600    57.1921912128 R1
Au      10.822100    4.325600    57.1921912128 R1
Au      8.324700    5.767500    57.1921912128 R1
Au      13.319500    5.767500    57.1921912128 R1
Au      10.822100    7.209400    57.1921912128 R1
Au      15.816900    7.209400    57.1921912128 R1
Au      0.000000    0.000000    59.5467862128 R1
Au      4.994800    0.000000    59.5467862128 R1
Au      2.497400    1.441900    59.5467862128 R1
Au      7.492200    1.441900    59.5467862128 R1
Au      4.994800    2.883800    59.5467862128 R1
Au      9.989600    2.883800    59.5467862128 R1
Au      2.497400    4.325600    59.5467862128 R1
Au      7.492200    4.325600    59.5467862128 R1
Au      4.994800    5.767500    59.5467862128 R1
Au      9.989600    5.767500    59.5467862128 R1
Au      7.492200    7.209400    59.5467862128 R1
Au      12.487000    7.209400    59.5467862128 R1
Au      1.664900    0.000000    61.9013910128 R2
Au      6.659800    0.000000    61.9013910128 R2
Au      4.162300    1.441900    61.9013910128 R2
Au      9.157200    1.441900    61.9013910128 R2
Au      6.659800    2.883800    61.9013910128 R2
Au      11.654600    2.883800    61.9013910128 R2
Au      4.162300    4.325600    61.9013910128 R2
Au      9.157200    4.325600    61.9013910128 R2
Au      6.659800    5.767500    61.9013910128 R2
Au      11.654600    5.767500    61.9013910128 R2
Au      9.157200    7.209400    61.9013910128 R2
Au      14.152000    7.209400    61.9013910128 R2
Au      3.329900    0.000000    64.2559905128 R2
Au      8.324700    0.000000    64.2559905128 R2
Au      5.827300    1.441900    64.2559905128 R2
Au      10.822100    1.441900    64.2559905128 R2
Au      8.324700    2.883800    64.2559905128 R2
Au      13.319500    2.883800    64.2559905128 R2
Au      5.827300    4.325600    64.2559905128 R2
Au      10.822100    4.325600    64.2559905128 R2
Au      8.324700    5.767500    64.2559905128 R2
Au      13.319500    5.767500    64.2559905128 R2
Au      10.822100    7.209400    64.2559905128 R2
Au      15.816900    7.209400    64.2559905128 R2
Au      0.000000    0.000000    66.6105975128 R2
Au      4.994800    0.000000    66.6105975128 R2
Au      2.497400    1.441900    66.6105975128 R2
Au      7.492200    1.441900    66.6105975128 R2
Au      4.994800    2.883800    66.6105975128 R2
Au      9.989600    2.883800    66.6105975128 R2
Au      2.497400    4.325600    66.6105975128 R2
Au      7.492200    4.325600    66.6105975128 R2
Au      4.994800    5.767500    66.6105975128 R2
Au      9.989600    5.767500    66.6105975128 R2
Au      7.492200    7.209400    66.6105975128 R2
Au      12.487000    7.209400    66.6105975128 R2
Au      1.664900    0.000000    68.96519101279999 R3
Au      6.659800    0.000000    68.96519101279999 R3
Au      4.162300    1.441900    68.96519101279999 R3
Au      9.157200    1.441900    68.96519101279999 R3
Au      6.659800    2.883800    68.96519101279999 R3
Au      11.654600    2.883800    68.96519101279999 R3
Au      4.162300    4.325600    68.96519101279999 R3
Au      9.157200    4.325600    68.96519101279999 R3
Au      6.659800    5.767500    68.96519101279999 R3
Au      11.654600    5.767500    68.96519101279999 R3
Au      9.157200    7.209400    68.96519101279999 R3
Au      14.152000    7.209400    68.96519101279999 R3
Au      3.329900    0.000000    71.3197905128 R3
Au      8.324700    0.000000    71.3197905128 R3
Au      5.827300    1.441900    71.3197905128 R3
Au      10.822100    1.441900    71.3197905128 R3
Au      8.324700    2.883800    71.3197905128 R3
Au      13.319500    2.883800    71.3197905128 R3
Au      5.827300    4.325600    71.3197905128 R3
Au      10.822100    4.325600    71.3197905128 R3
Au      8.324700    5.767500    71.3197905128 R3
Au      13.319500    5.767500    71.3197905128 R3
Au      10.822100    7.209400    71.3197905128 R3
Au      15.816900    7.209400    71.3197905128 R3
Au      0.000000    0.000000    73.6743975128 R3
Au      4.994800    0.000000    73.6743975128 R3
Au      2.497400    1.441900    73.6743975128 R3
Au      7.492200    1.441900    73.6743975128 R3
Au      4.994800    2.883800    73.6743975128 R3
Au      9.989600    2.883800    73.6743975128 R3
Au      2.497400    4.325600    73.6743975128 R3
Au      7.492200    4.325600    73.6743975128 R3
Au      4.994800    5.767500    73.6743975128 R3
Au      9.989600    5.767500    73.6743975128 R3
Au      7.492200    7.209400    73.6743975128 R3
Au      12.487000    7.209400    73.6743975128 R3