     117
 i =      386, E =     -1614.5826876905
 Au         1.6649000000        0.0000000000        0.0000000000
 Au         6.6598000000        0.0000000000        0.0000000000
 Au         4.1623000000        1.4419000000        0.0000000000
 Au         9.1572000000        1.4419000000        0.0000000000
 Au         6.6598000000        2.8838000000        0.0000000000
 Au        11.6546000000        2.8838000000        0.0000000000
 Au         4.1623000000        4.3256000000        0.0000000000
 Au         9.1572000000        4.3256000000        0.0000000000
 Au         6.6598000000        5.7675000000        0.0000000000
 Au        11.6546000000        5.7675000000        0.0000000000
 Au         9.1572000000        7.2094000000        0.0000000000
 Au        14.1520000000        7.2094000000        0.0000000000
 Au         3.3299000000        0.0000000000        2.3546000000
 Au         8.3247000000        0.0000000000        2.3546000000
 Au         5.8273000000        1.4419000000        2.3546000000
 Au        10.8221000000        1.4419000000        2.3546000000
 Au         8.3247000000        2.8838000000        2.3546000000
 Au        13.3195000000        2.8838000000        2.3546000000
 Au         5.8273000000        4.3256000000        2.3546000000
 Au        10.8221000000        4.3256000000        2.3546000000
 Au         8.3247000000        5.7675000000        2.3546000000
 Au        13.3195000000        5.7675000000        2.3546000000
 Au        10.8221000000        7.2094000000        2.3546000000
 Au        15.8169000000        7.2094000000        2.3546000000
 Au         0.0000000000        0.0000000000        4.7091000000
 Au         4.9948000000        0.0000000000        4.7091000000
 Au         2.4974000000        1.4419000000        4.7091000000
 Au         7.4922000000        1.4419000000        4.7091000000
 Au         4.9948000000        2.8838000000        4.7091000000
 Au         9.9896000000        2.8838000000        4.7091000000
 Au         2.4974000000        4.3256000000        4.7091000000
 Au         7.4922000000        4.3256000000        4.7091000000
 Au         4.9948000000        5.7675000000        4.7091000000
 Au         9.9896000000        5.7675000000        4.7091000000
 Au         7.4922000000        7.2094000000        4.7091000000
 Au        12.4870000000        7.2094000000        4.7091000000
  C        10.4395215743        2.3810209102       18.2273613607
  C        10.1127545226        1.0276606313       17.8314526616
  C         9.9321015619        1.0023237388       16.3952480001
  C        10.1507615539        2.3723636984       15.8951305091
  C        10.4615235956        3.2054311655       17.0359185881
  C        10.0127704334        4.5283357305       17.0991144803
  C         9.2038033050        5.0465694114       16.0245333208
  C         8.8887573509        4.2170495383       14.9389776207
  C         9.3975277514        2.8748184489       14.8513394792
  C         8.4798517160        2.0217096435       13.9765223319
  C         8.2404082680        0.5211959366       14.5196780630
  C         8.9625412869        0.1969318701       15.8291615241
  C         8.1062889797       -0.5686932896       16.6919498341
  C         8.2829026383       -0.5773207487       18.0827745515
  C         9.3145821860        0.2386729021       18.6687314718
  C         8.8117266818        0.7739440631       19.9197364780
  C         7.4585657970        0.2791044887       20.1055241571
  C         7.1337361930       -0.5603355656       18.9666520857
  C         5.8471945860       -0.5420486348       18.4274451198
  C         5.6623854885       -0.5425456098       16.9876853032
  C         6.7713989365       -0.5503973156       16.1330756785
  C         6.7932385681        0.2309813408       14.9273204455
  C         5.7201940481        1.0504331046       14.6369072166
  C         5.9413925029        2.4213022759       14.1363395768
  C         7.2247099758        2.8966898592       13.9595169612
  C         7.5492768915        4.2305820332       14.3829557233
  C         6.5728658333        5.0804598495       14.9244240680
  C         6.8992349666        5.9240495259       16.0615956518
  C         8.1862269254        5.9054709723       16.6006273455
  C         8.3722685110        5.9108238256       18.0390028398
  C         7.2664716679        5.9402566655       18.8917298726
  C         5.9284018419        5.9544677338       18.3314830379
  C         5.7504448878        5.9452080757       16.9438790516
  C         4.7169175819        5.1188628455       16.3486247946
  C         5.2285936619        4.5879465705       15.0995582224
  C         4.9257363364        3.2717847167       14.7197262468
  C         4.0854173769        2.4536880054       15.5726723804
  C         4.5739395416        1.0895379496       15.5193983378
  C         4.5359542999        0.2958810401       16.6739607532
  C         4.0205489165        0.8326364263       17.9169608649
  C         4.8291278275        0.3131336512       19.0055311679
  C         5.1382030394        1.1261639578       20.1011648479
  C         6.4791278474        1.1100129202       20.6620275777
  C         6.8159616752        2.4660464007       21.0554228637
  C         5.6836761011        3.3203473140       20.7402726689
  C         4.6482702560        2.4916569625       20.1495997439
  C         3.8694957533        2.9907710035       19.0995230881
  C         3.5564664789        2.1484417945       17.9654969302
  C         3.5844189009        2.9716163576       16.7700894042
  C         3.9061967399        4.3282021415       17.1687319286
  C         4.0869091508        4.3406660628       18.6060527778
  C         5.0811079201        5.1393490874       19.1803147174
  C         5.8953660591        4.6195386100       20.2650145015
  C         7.2478170564        5.1161552226       20.0860188128
  C         8.3402534851        4.2931338599       20.3832243991
  C         8.1207476381        2.9419154977       20.8782107846
  C         9.1331470295        2.0822429447       20.2987336713
  C         9.9719528773        2.8982302449       19.4382577901
  C         9.4865088647        4.2651339354       19.4981270894
  C         9.5056662194        5.0609685448       18.3477498205
  C         8.7011097708       -0.3519775378       13.3116977345
  C         9.0258611245        1.7814018649       12.5407620770
  N         8.4347144515        0.5051597124       12.1649762996
  H         8.1440541335       -1.2967617460       13.2474951855
  H         9.7812692266       -0.5921048122       13.4250846351
  H        10.1375684010        1.7321998176       12.5709330694
  H         8.7354997661        2.5822054332       11.8484406750
  C         8.2525890502        0.8235890701        9.7490235267
  C         9.0255387262        1.7179561740        8.9988519070
  C         8.4372745653        2.5701556959        8.0623294461
  C         7.0488421810        2.5302344760        7.8516353974
  C         6.8713290585        0.7646169051        9.5030535440
  C         6.2715601603        1.5945632704        8.5609579514
  H        10.1043557496        1.7675887835        9.1605992823
  H         6.2555195383        0.0693234941       10.0759301266
  H         5.1973379423        1.5415213967        8.3838310216
  H         9.0473958818        3.2883927358        7.5133190058
  S         6.2199290286        3.7775234910        6.8953267036
  C         8.8554454196       -0.0095373893       10.8589231313
  H         9.9622057288       -0.0372698230       10.7594254153
  H         8.4984162559       -1.0484367990       10.7828106111
Au      8.324700    5.767500    45.4192882128 R0
Au      1.664900    0.000000    47.773891212799995 R0
Au      6.659800    0.000000    47.773891212799995 R0
Au      4.162300    1.441900    47.773891212799995 R0
Au      9.157200    1.441900    47.773891212799995 R0
Au      6.659800    2.883800    47.773891212799995 R0
Au      11.654600    2.883800    47.773891212799995 R0
Au      4.162300    4.325600    47.773891212799995 R0
Au      9.157200    4.325600    47.773891212799995 R0
Au      6.659800    5.767500    47.773891212799995 R0
Au      11.654600    5.767500    47.773891212799995 R0
Au      9.157200    7.209400    47.773891212799995 R0
Au      14.152000    7.209400    47.773891212799995 R0
Au      3.329900    0.000000    50.128493212799995 R0
Au      8.324700    0.000000    50.128493212799995 R0
Au      5.827300    1.441900    50.128493212799995 R0
Au      10.822100    1.441900    50.128493212799995 R0
Au      8.324700    2.883800    50.128493212799995 R0
Au      13.319500    2.883800    50.128493212799995 R0
Au      5.827300    4.325600    50.128493212799995 R0
Au      10.822100    4.325600    50.128493212799995 R0
Au      8.324700    5.767500    50.128493212799995 R0
Au      13.319500    5.767500    50.128493212799995 R0
Au      10.822100    7.209400    50.128493212799995 R0
Au      15.816900    7.209400    50.128493212799995 R0
Au      0.000000    0.000000    52.4828902128 R0
Au      4.994800    0.000000    52.483089212799996 R0
Au      2.497400    1.441900    52.483089212799996 R0
Au      7.492200    1.441900    52.483089212799996 R0
Au      4.994800    2.883800    52.483089212799996 R0
Au      9.989600    2.883800    52.483089212799996 R0
Au      2.497400    4.325600    52.483089212799996 R0
Au      7.492200    4.325600    52.483089212799996 R0
Au      4.994800    5.767500    52.483089212799996 R0
Au      9.989600    5.767500    52.483089212799996 R0
Au      7.492200    7.209400    52.483089212799996 R0
Au      12.487000    7.209400    52.483089212799996 R0
Au      1.664900    0.000000    54.8375922128 R1
Au      6.659800    0.000000    54.8375922128 R1
Au      4.162300    1.441900    54.8375922128 R1
Au      9.157200    1.441900    54.8375922128 R1
Au      6.659800    2.883800    54.8375922128 R1
Au      11.654600    2.883800    54.8375922128 R1
Au      4.162300    4.325600    54.8375922128 R1
Au      9.157200    4.325600    54.8375922128 R1
Au      6.659800    5.767500    54.8375922128 R1
Au      11.654600    5.767500    54.8375922128 R1
Au      9.157200    7.209400    54.8375922128 R1
Au      14.152000    7.209400    54.8375922128 R1
Au      3.329900    0.000000    57.1921912128 R1
Au      8.324700    0.000000    57.1921912128 R1
Au      5.827300    1.441900    57.1921912128 R1
Au      10.822100    1.441900    57.1921912128 R1
Au      8.324700    2.883800    57.1921912128 R1
Au      13.319500    2.883800    57.1921912128 R1
Au      5.827300    4.325600    57.1921912128 R1
Au      10.822100    4.325600    57.1921912128 R1
Au      8.324700    5.767500    57.1921912128 R1
Au      13.319500    5.767500    57.1921912128 R1
Au      10.822100    7.209400    57.1921912128 R1
Au      15.816900    7.209400    57.1921912128 R1
Au      0.000000    0.000000    59.5467862128 R1
Au      4.994800    0.000000    59.5467862128 R1
Au      2.497400    1.441900    59.5467862128 R1
Au      7.492200    1.441900    59.5467862128 R1
Au      4.994800    2.883800    59.5467862128 R1
Au      9.989600    2.883800    59.5467862128 R1
Au      2.497400    4.325600    59.5467862128 R1
Au      7.492200    4.325600    59.5467862128 R1
Au      4.994800    5.767500    59.5467862128 R1
Au      9.989600    5.767500    59.5467862128 R1
Au      7.492200    7.209400    59.5467862128 R1
Au      12.487000    7.209400    59.5467862128 R1
Au      1.664900    0.000000    61.9013910128 R2
Au      6.659800    0.000000    61.9013910128 R2
Au      4.162300    1.441900    61.9013910128 R2
Au      9.157200    1.441900    61.9013910128 R2
Au      6.659800    2.883800    61.9013910128 R2
Au      11.654600    2.883800    61.9013910128 R2
Au      4.162300    4.325600    61.9013910128 R2
Au      9.157200    4.325600    61.9013910128 R2
Au      6.659800    5.767500    61.9013910128 R2
Au      11.654600    5.767500    61.9013910128 R2
Au      9.157200    7.209400    61.9013910128 R2
Au      14.152000    7.209400    61.9013910128 R2
Au      3.329900    0.000000    64.2559905128 R2
Au      8.324700    0.000000    64.2559905128 R2
Au      5.827300    1.441900    64.2559905128 R2
Au      10.822100    1.441900    64.2559905128 R2
Au      8.324700    2.883800    64.2559905128 R2
Au      13.319500    2.883800    64.2559905128 R2
Au      5.827300    4.325600    64.2559905128 R2
Au      10.822100    4.325600    64.2559905128 R2
Au      8.324700    5.767500    64.2559905128 R2
Au      13.319500    5.767500    64.2559905128 R2
Au      10.822100    7.209400    64.2559905128 R2
Au      15.816900    7.209400    64.2559905128 R2
Au      0.000000    0.000000    66.6105975128 R2
Au      4.994800    0.000000    66.6105975128 R2
Au      2.497400    1.441900    66.6105975128 R2
Au      7.492200    1.441900    66.6105975128 R2
Au      4.994800    2.883800    66.6105975128 R2
Au      9.989600    2.883800    66.6105975128 R2
Au      2.497400    4.325600    66.6105975128 R2
Au      7.492200    4.325600    66.6105975128 R2
Au      4.994800    5.767500    66.6105975128 R2
Au      9.989600    5.767500    66.6105975128 R2
Au      7.492200    7.209400    66.6105975128 R2
Au      12.487000    7.209400    66.6105975128 R2
Au      1.664900    0.000000    68.96519101279999 R3
Au      6.659800    0.000000    68.96519101279999 R3
Au      4.162300    1.441900    68.96519101279999 R3
Au      9.157200    1.441900    68.96519101279999 R3
Au      6.659800    2.883800    68.96519101279999 R3
Au      11.654600    2.883800    68.96519101279999 R3
Au      4.162300    4.325600    68.96519101279999 R3
Au      9.157200    4.325600    68.96519101279999 R3
Au      6.659800    5.767500    68.96519101279999 R3
Au      11.654600    5.767500    68.96519101279999 R3
Au      9.157200    7.209400    68.96519101279999 R3
Au      14.152000    7.209400    68.96519101279999 R3
Au      3.329900    0.000000    71.3197905128 R3
Au      8.324700    0.000000    71.3197905128 R3
Au      5.827300    1.441900    71.3197905128 R3
Au      10.822100    1.441900    71.3197905128 R3
Au      8.324700    2.883800    71.3197905128 R3
Au      13.319500    2.883800    71.3197905128 R3
Au      5.827300    4.325600    71.3197905128 R3
Au      10.822100    4.325600    71.3197905128 R3
Au      8.324700    5.767500    71.3197905128 R3
Au      13.319500    5.767500    71.3197905128 R3
Au      10.822100    7.209400    71.3197905128 R3
Au      15.816900    7.209400    71.3197905128 R3
Au      0.000000    0.000000    73.6743975128 R3
Au      4.994800    0.000000    73.6743975128 R3
Au      2.497400    1.441900    73.6743975128 R3
Au      7.492200    1.441900    73.6743975128 R3
Au      4.994800    2.883800    73.6743975128 R3
Au      9.989600    2.883800    73.6743975128 R3
Au      2.497400    4.325600    73.6743975128 R3
Au      7.492200    4.325600    73.6743975128 R3
Au      4.994800    5.767500    73.6743975128 R3
Au      9.989600    5.767500    73.6743975128 R3
Au      7.492200    7.209400    73.6743975128 R3
Au      12.487000    7.209400    73.6743975128 R3