 420
 i =       82, E =     -3365.3998523447
Au     0.000000     0.000000     0.000000     L3
Au     8.760000     0.000000     0.000000     L3
Au     4.380000     7.586382     0.000000     L3
Au     13.140000     7.586382     0.000000     L3
Au     2.920000     0.000000     0.000000     L3
Au     11.680000     0.000000     0.000000     L3
Au     7.300000     7.586382     0.000000     L3
Au     16.059999     7.586382     0.000000     L3
Au     5.840000     0.000000     0.000000     L3
Au     10.220000     7.586382     0.000000     L3
Au     1.460000     2.528794     0.000000     L3
Au     10.220000     2.528794     0.000000     L3
Au     5.840000     10.115176     0.000000     L3
Au     14.600000     10.115176     0.000000     L3
Au     4.380000     2.528794     0.000000     L3
Au     13.140000     2.528794     0.000000     L3
Au     8.760000     10.115176     0.000000     L3
Au     17.520000     10.115176     0.000000     L3
Au     7.300000     2.528794     0.000000     L3
Au     11.680000     10.115176     0.000000     L3
Au     2.920000     5.057588     0.000000     L3
Au     11.680000     5.057588     0.000000     L3
Au     5.840000     5.057588     0.000000     L3
Au     14.600000     5.057588     0.000000     L3
Au     8.760000     5.057588     0.000000     L3
Au     1.460000     0.842931     2.384170     L3
Au     10.220000     0.842931     2.384170     L3
Au     5.840000     8.429314     2.384170     L3
Au     14.600000     8.429314     2.384170     L3
Au     4.380000     0.842931     2.384170     L3
Au     13.140000     0.842931     2.384170     L3
Au     8.760000     8.429314     2.384170     L3
Au     17.520000     8.429314     2.384170     L3
Au     7.300000     0.842931     2.384170     L3
Au     11.680000     8.429314     2.384170     L3
Au     2.920000     3.371726     2.384170     L3
Au     11.680000     3.371726     2.384170     L3
Au     7.300000     10.958108     2.384170     L3
Au     16.059999     10.958108     2.384170     L3
Au     5.840000     3.371726     2.384170     L3
Au     14.600000     3.371726     2.384170     L3
Au     10.220000     10.958108     2.384170     L3
Au     18.980000     10.958108     2.384170     L3
Au     8.760000     3.371726     2.384170     L3
Au     13.140000     10.958108     2.384170     L3
Au     4.380000     5.900520     2.384170     L3
Au     13.140000     5.900520     2.384170     L3
Au     7.300000     5.900520     2.384170     L3
Au     16.059999     5.900520     2.384170     L3
Au     10.220000     5.900520     2.384170     L3
Au     8.760000     1.685863     4.768340     L3
Au     13.140000     9.272245     4.768340     L3
Au     2.920000     1.685863     4.768340     L3
Au     11.680000     1.685863     4.768340     L3
Au     7.300000     9.272245     4.768340     L3
Au     16.059999     9.272245     4.768340     L3
Au     5.840000     1.685863     4.768340     L3
Au     14.600000     1.685863     4.768340     L3
Au     10.220000     9.272245     4.768340     L3
Au     18.980000     9.272245     4.768340     L3
Au     10.220000     4.214657     4.768340     L3
Au     14.600000     11.801040     4.768340     L3
Au     4.380000     4.214657     4.768340     L3
Au     13.140000     4.214657     4.768340     L3
Au     8.760000     11.801040     4.768340     L3
Au     17.520000     11.801040     4.768340     L3
Au     7.300000     4.214657     4.768340     L3
Au     16.059999     4.214657     4.768340     L3
Au     11.680000     11.801040     4.768340     L3
Au     20.440001     11.801040     4.768340     L3
Au     11.680000     6.743451     4.768340     L3
Au     5.840000     6.743451     4.768340     L3
Au     14.600000     6.743451     4.768340     L3
Au     8.760000     6.743451     4.768340     L3
Au     17.520000     6.743451     4.768340     L3
Au     0.000000     0.000000     7.152510     L2
Au     8.760000     0.000000     7.152510     L2
Au     4.380000     7.586382     7.152510     L2
Au     13.140000     7.586382     7.152510     L2
Au     2.920000     0.000000     7.152510     L2
Au     11.680000     0.000000     7.152510     L2
Au     7.300000     7.586382     7.152510     L2
Au     16.059999     7.586382     7.152510     L2
Au     5.840000     0.000000     7.152510     L2
Au     10.220000     7.586382     7.152510     L2
Au     1.460000     2.528794     7.152510     L2
Au     10.220000     2.528794     7.152510     L2
Au     5.840000     10.115176     7.152510     L2
Au     14.600000     10.115176     7.152510     L2
Au     4.380000     2.528794     7.152510     L2
Au     13.140000     2.528794     7.152510     L2
Au     8.760000     10.115176     7.152510     L2
Au     17.520000     10.115176     7.152510     L2
Au     7.300000     2.528794     7.152510     L2
Au     11.680000     10.115176     7.152510     L2
Au     2.920000     5.057588     7.152510     L2
Au     11.680000     5.057588     7.152510     L2
Au     5.840000     5.057588     7.152510     L2
Au     14.600000     5.057588     7.152510     L2
Au     8.760000     5.057588     7.152510     L2
Au     1.460000     0.842931     9.536680     L2
Au     10.220000     0.842931     9.536680     L2
Au     5.840000     8.429314     9.536680     L2
Au     14.600000     8.429314     9.536680     L2
Au     4.380000     0.842931     9.536680     L2
Au     13.140000     0.842931     9.536680     L2
Au     8.760000     8.429314     9.536680     L2
Au     17.520000     8.429314     9.536680     L2
Au     7.300000     0.842931     9.536680     L2
Au     11.680000     8.429314     9.536680     L2
Au     2.920000     3.371726     9.536680     L2
Au     11.680000     3.371726     9.536680     L2
Au     7.300000     10.958108     9.536680     L2
Au     16.059999     10.958108     9.536680     L2
Au     5.840000     3.371726     9.536680     L2
Au     14.600000     3.371726     9.536680     L2
Au     10.220000     10.958108     9.536680     L2
Au     18.980000     10.958108     9.536680     L2
Au     8.760000     3.371726     9.536680     L2
Au     13.140000     10.958108     9.536680     L2
Au     4.380000     5.900520     9.536680     L2
Au     13.140000     5.900520     9.536680     L2
Au     7.300000     5.900520     9.536680     L2
Au     16.059999     5.900520     9.536680     L2
Au     10.220000     5.900520     9.536680     L2
Au     8.760000     1.685863     11.920850     L2
Au     13.140000     9.272245     11.920850     L2
Au     2.920000     1.685863     11.920850     L2
Au     11.680000     1.685863     11.920850     L2
Au     7.300000     9.272245     11.920850     L2
Au     16.059999     9.272245     11.920850     L2
Au     5.840000     1.685863     11.920850     L2
Au     14.600000     1.685863     11.920850     L2
Au     10.220000     9.272245     11.920850     L2
Au     18.980000     9.272245     11.920850     L2
Au     10.220000     4.214657     11.920850     L2
Au     14.600000     11.801040     11.920850     L2
Au     4.380000     4.214657     11.920850     L2
Au     13.140000     4.214657     11.920850     L2
Au     8.760000     11.801040     11.920850     L2
Au     17.520000     11.801040     11.920850     L2
Au     7.300000     4.214657     11.920850     L2
Au     16.059999     4.214657     11.920850     L2
Au     11.680000     11.801040     11.920850     L2
Au     20.440001     11.801040     11.920850     L2
Au     11.680000     6.743451     11.920850     L2
Au     5.840000     6.743451     11.920850     L2
Au     14.600000     6.743451     11.920850     L2
Au     8.760000     6.743451     11.920850     L2
Au     17.520000     6.743451     11.920850     L2
Au     0.000000     0.000000     14.305019     L1
Au     8.760000     0.000000     14.305019     L1
Au     4.380000     7.586382     14.305019     L1
Au     13.140000     7.586382     14.305019     L1
Au     2.920000     0.000000     14.305019     L1
Au     11.680000     0.000000     14.305019     L1
Au     7.300000     7.586382     14.305019     L1
Au     16.059999     7.586382     14.305019     L1
Au     5.840000     0.000000     14.305019     L1
Au     10.220000     7.586382     14.305019     L1
Au     1.460000     2.528794     14.305019     L1
Au     10.220000     2.528794     14.305019     L1
Au     5.840000     10.115176     14.305019     L1
Au     14.600000     10.115176     14.305019     L1
Au     4.380000     2.528794     14.305019     L1
Au     13.140000     2.528794     14.305019     L1
Au     8.760000     10.115176     14.305019     L1
Au     17.520000     10.115176     14.305019     L1
Au     7.300000     2.528794     14.305019     L1
Au     11.680000     10.115176     14.305019     L1
Au     2.920000     5.057588     14.305019     L1
Au     11.680000     5.057588     14.305019     L1
Au     5.840000     5.057588     14.305019     L1
Au     14.600000     5.057588     14.305019     L1
Au     8.760000     5.057588     14.305019     L1
Au     1.460000     0.842931     16.689190     L1
Au     10.220000     0.842931     16.689190     L1
Au     5.840000     8.429314     16.689190     L1
Au     14.600000     8.429314     16.689190     L1
Au     4.380000     0.842931     16.689190     L1
Au     13.140000     0.842931     16.689190     L1
Au     8.760000     8.429314     16.689190     L1
Au     17.520000     8.429314     16.689190     L1
Au     7.300000     0.842931     16.689190     L1
Au     11.680000     8.429314     16.689190     L1
Au     2.920000     3.371726     16.689190     L1
Au     11.680000     3.371726     16.689190     L1
Au     7.300000     10.958108     16.689190     L1
Au     16.059999     10.958108     16.689190     L1
Au     5.840000     3.371726     16.689190     L1
Au     14.600000     3.371726     16.689190     L1
Au     10.220000     10.958108     16.689190     L1
Au     18.980000     10.958108     16.689190     L1
Au     8.760000     3.371726     16.689190     L1
Au     13.140000     10.958108     16.689190     L1
Au     4.380000     5.900520     16.689190     L1
Au     13.140000     5.900520     16.689190     L1
Au     7.300000     5.900520     16.689190     L1
Au     16.059999     5.900520     16.689190     L1
Au     10.220000     5.900520     16.689190     L1
Au     8.760000     1.685863     19.073360     L1
Au     13.140000     9.272245     19.073360     L1
Au     2.920000     1.685863     19.073360     L1
Au     11.680000     1.685863     19.073360     L1
Au     7.300000     9.272245     19.073360     L1
Au     16.059999     9.272245     19.073360     L1
Au     5.840000     1.685863     19.073360     L1
Au     14.600000     1.685863     19.073360     L1
Au     10.220000     9.272245     19.073360     L1
Au     18.980000     9.272245     19.073360     L1
Au     10.220000     4.214657     19.073360     L1
Au     14.600000     11.801040     19.073360     L1
Au     4.380000     4.214657     19.073360     L1
Au     13.140000     4.214657     19.073360     L1
Au     8.760000     11.801040     19.073360     L1
Au     17.520000     11.801040     19.073360     L1
Au     7.300000     4.214657     19.073360     L1
Au     16.059999     4.214657     19.073360     L1
Au     11.680000     11.801040     19.073360     L1
Au     20.440001     11.801040     19.073360     L1
Au     11.680000     6.743451     19.073360     L1
Au     5.840000     6.743451     19.073360     L1
Au     14.600000     6.743451     19.073360     L1
Au     8.760000     6.743451     19.073360     L1
Au     17.520000     6.743451     19.073360     L1
Au    0.0000000000    0.0000000000    20.895231481    L0
Au    8.7600000000    0.0000000000    20.8916479473    L0
Au    4.3800000000    7.5863820000    20.8917573785    L0
Au    13.1400000000    7.5863820000    20.9026682565    L0
Au    2.9200000000    0.0000000000    20.8921390079    L0
Au    11.6800000000    0.0000000000    20.8923560449    L0
Au    7.3000000000    7.5863820000    20.8698502128    L0
Au    16.0599990000    7.5863820000    20.8983863738    L0
Au    5.8400000000    0.0000000000    20.8944394364    L0
Au    10.2200000000    7.5863820000    20.876375018    L0
Au    1.4600000000    2.5287940000    20.8963016086    L0
Au    10.2200000000    2.5287940000    20.8739408806    L0
Au    5.8400000000    10.1151760000    20.8925786087    L0
Au    14.6000000000    10.1151760000    20.898589180400002    L0
Au    4.3800000000    2.5287940000    20.8933729607    L0
Au    13.1400000000    2.5287940000    20.8884403197    L0
Au    8.7600000000    10.1151760000    20.8807461538    L0
Au    17.5200000000    10.1151760000    20.8980157191    L0
Au    7.3000000000    2.5287940000    20.8778540916    L0
Au    11.6800000000    10.1151760000    20.8944373935    L0
Au    2.9200000000    5.0575880000    20.8962336009    L0
Au    11.6800000000    5.0575880000    20.8827372658    L0
Au    5.8400000000    5.0575880000    20.8779052389    L0
Au    14.6000000000    5.0575880000    20.9027699701    L0
Au    8.7600000000    5.0575880000    20.8642598157    L0
Au    1.4600000000    0.8429310000    23.5191477326    L0
Au    10.2200000000    0.8429310000    23.5105730611    L0
Au    5.8400000000    8.4293140000    23.5094372521    L0
Au    14.6000000000    8.4293140000    23.5228400822    L0
Au    4.3800000000    0.8429310000    23.5183454891    L0
Au    13.1400000000    0.8429310000    23.5163731202    L0
Au    8.7600000000    8.4293140000    23.4910117685    L0
Au    17.5200000000    8.4293140000    23.5201806347    L0
Au    7.3000000000    0.8429310000    23.5134884113    L0
Au    11.6800000000    8.4293140000    23.5159880337    L0
Au    2.9200000000    3.3717260000    23.5191766355    L0
Au    11.6800000000    3.3717260000    23.4988311296    L0
Au    7.3000000000    10.9581080000    23.5147670403    L0
Au    16.0599990000    10.9581080000    23.5197952094    L0
Au    5.8400000000    3.3717260000    23.507878351    L0
Au    14.6000000000    3.3717260000    23.5186822772    L0
Au    10.2200000000    10.9581080000    23.5103533814    L0
Au    18.9800000000    10.9581080000    23.51955783    L0
Au    8.7600000000    3.3717260000    23.4877489303    L0
Au    13.1400000000    10.9581080000    23.5198474421    L0
Au    4.3800000000    5.9005200000    23.5135645418    L0
Au    13.1400000000    5.9005200000    23.5243389142    L0
Au    7.3000000000    5.9005200000    23.4872030688    L0
Au    16.0599990000    5.9005200000    23.5218979751    L0
Au    10.2200000000    5.9005200000    23.4906668581    L0
Au    8.7600000000    1.6858630000    26.1297429313    L0
Au    13.1400000000    9.2722450000    26.1426342729    L0
Au    2.9200000000    1.6858630000    26.1447642152    L0
Au    11.6800000000    1.6858630000    26.1332703215    L0
Au    7.3000000000    9.2722450000    26.131500447    L0
Au    16.0599990000    9.2722450000    26.145528007    L0
Au    5.8400000000    1.6858630000    26.1385425834    L0
Au    14.6000000000    1.6858630000    26.1430155432    L0
Au    10.2200000000    9.2722450000    26.1205951199    L0
Au    18.9800000000    9.2722450000    26.1420350895    L0
Au    10.2200000000    4.2146570000    26.0884391113    L0
Au    14.6000000000    11.8010400000    26.1440433506    L0
Au    4.3800000000    4.2146570000    26.1386789416    L0
Au    13.1400000000    4.2146570000    26.1355079293    L0
Au    8.7600000000    11.8010400000    26.1411207579    L0
Au    17.5200000000    11.8010400000    26.1430548134    L0
Au    7.3000000000    4.2146570000    26.1197744499    L0
Au    16.0599990000    4.2146570000    26.1452444574    L0
Au    11.6800000000    11.8010400000    26.143401274200002    L0
Au    20.4400010000    11.8010400000    26.144136393    L0
Au    11.6800000000    6.7434510000    26.1338979022    L0
Au    5.8400000000    6.7434510000    26.1284263466    L0
Au    14.6000000000    6.7434510000    26.1444427078    L0
Au    8.7600000000    6.7434510000    26.0867350473    L0
Au    17.5200000000    6.7434510000    26.1432057952    L0
C    11.0017961482    6.3776842768    38.4674533531    S
C    11.5511451288    7.5517728900    37.940643821600005    S
C    12.5135130156    7.4782577550    36.9328628976    S
C    12.9420889476    6.2381931535    36.4320602102    S
C    11.4480910567    5.1336980548    38.0080533893    S
C    12.4098459339    5.0684099436    36.9987267789    S
C    12.9521300616    6.2285667042    31.4355702505    S
H    12.9297200751    8.3973873181    36.513642633399996    S
H    10.2049962919    6.4319737233    39.210945748499995    S
H    11.0337357204    4.2152942982    38.427539108800005    S
H    12.7432600169    4.0952130640    36.6310598816    S
H    11.2158305465    8.5234356589    38.3067881599    S
C    12.5263167172    7.4684531109    30.9324221998    S
C    11.5712177451    7.5421860994    29.91820069    S
C    11.0265434941    6.3687914805    29.385970035    S
C    11.4701631263    5.1251626494    29.8477471808    S
C    12.4240041325    5.0595305195    30.864176821100003    S
H    11.2383402648    8.5136547213    29.5503349839    S
H    12.9386462123    8.3872657862    31.355238423099998    S
H    11.0590429097    4.2074172405    29.4241436769    S
H    12.7543613266    4.0861537231    31.2334981415    S
H    10.2355838750    6.4235480729    28.6364114003    S
C    13.8578078004    6.1698162161    35.2342791584    S
C    13.8615783528    6.1608885503    32.637869042    S
C    13.0342016603    6.2432436940    33.934463242999996    S
H    14.5903207719    6.9864610069    32.6108190419    S
H    14.4378725522    5.2227149051    32.6257580972    S
H    14.5820326493    6.9994934766    35.2603959277    S
H    14.4386792433    5.2342362500    35.2523604903    S
H    12.2892877226    5.4318512474    33.9361033869    S
H    12.4538623300    7.1794984514    33.930154801    S
Au    8.7600020000    1.6858630000    41.7308315947    R0
Au    13.1400000000    9.2722460000    41.715019595    R0
Au    2.9200000000    1.6858630000    41.7132692991    R0
Au    11.6800000000    1.6858630000    41.726078237799996    R0
Au    7.3000000000    9.2722460000    41.7295457556    R0
Au    16.0599990000    9.2722460000    41.7127257276    R0
Au    5.8400010000    1.6858630000    41.7210705264    R0
Au    14.6000000000    1.6858630000    41.7152009631    R0
Au    10.2200000000    9.2722460000    41.738979598499995    R0
Au    18.9800000000    9.2722460000    41.717593605299996    R0
Au    10.2200010000    4.2146570000    41.770519827200005    R0
Au    14.6000000000    11.8010400000    41.7154563779    R0
Au    4.3800000000    4.2146570000    41.720725240600004    R0
Au    13.1400000000    4.2146570000    41.7214495642    R0
Au    8.7600000000    11.8010400000    41.718539890100004    R0
Au    17.5200000000    11.8010400000    41.7167805641    R0
Au    7.3000000000    4.2146570000    41.7418565328    R0
Au    16.0599990000    4.2146570000    41.711572751700004    R0
Au    11.6800000000    11.8010400000    41.7159890656    R0
Au    20.4400010000    11.8010400000    41.715570959000004    R0
Au    11.6800000000    6.7434510000    41.7218162922    R0
Au    5.8400000000    6.7434510000    41.7328365246    R0
Au    14.6000000000    6.7434510000    41.712199894899996    R0
Au    8.7600000000    6.7434510000    41.7748288416    R0
Au    17.5200000000    6.7434510000    41.7151208913    R0
Au    1.4600000000    0.8429310000    44.3390596897    R0
Au    10.2200000000    0.8429310000    44.349052780600005    R0
Au    5.8400010000    8.4293140000    44.3507716975    R0
Au    14.6000000000    8.4293140000    44.334194996099995    R0
Au    4.3800000000    0.8429310000    44.3403097069    R0
Au    13.1400010000    0.8429310000    44.342387720299996    R0
Au    8.7600000000    8.4293140000    44.3693417022    R0
Au    17.5200000000    8.4293140000    44.3381926773    R0
Au    7.3000010000    0.8429310000    44.3460851014    R0
Au    11.6800000000    8.4293140000    44.3418067606    R0
Au    2.9200000000    3.3717260000    44.338520129    R0
Au    11.6800010000    3.3717260000    44.3594100752    R0
Au    7.3000000000    10.9581090000    44.3449616559    R0
Au    16.0599980000    10.9581090000    44.338908793    R0
Au    5.8400000000    3.3717260000    44.352016843200005    R0
Au    14.6000000000    3.3717260000    44.3380682373    R0
Au    10.2200000000    10.9581090000    44.348897887    R0
Au    18.9800000000    10.9581090000    44.339924300700005    R0
Au    8.7600000000    3.3717260000    44.3721466315    R0
Au    13.1399990000    10.9581090000    44.338877250799996    R0
Au    4.3800000000    5.9005200000    44.345849716900005    R0
Au    13.1400000000    5.9005200000    44.3326724824    R0
Au    7.3000000000    5.9005200000    44.3739921428    R0
Au    16.0599990000    5.9005200000    44.334722513900005    R0
Au    10.2200000000    5.9005200000    44.3683898077    R0
Au    0.0000000000    0.0000000000    46.963218824500004    R0
Au    8.7600000000    0.0000000000    46.9671572174    R0
Au    4.3800000000    7.5863820000    46.9669417589    R0
Au    13.1399990000    7.5863820000    46.9542043577    R0
Au    2.9200000000    0.0000000000    46.9657710555    R0
Au    11.6800000000    0.0000000000    46.9662496008    R0
Au    7.3000000000    7.5863820000    46.9905317339    R0
Au    16.0599990000    7.5863820000    46.957870746699996    R0
Au    5.8400000000    0.0000000000    46.9639828771    R0
Au    10.2200000000    7.5863820000    46.9826343326    R0
Au    1.4600000000    2.5287940000    46.9603853886    R0
Au    10.2200000000    2.5287940000    46.9849992695    R0
Au    5.8400000000    10.1151760000    46.9668346085    R0
Au    14.6000000000    10.1151760000    46.9588465939    R0
Au    4.3800000000    2.5287940000    46.964505709099996    R0
Au    13.1400000000    2.5287940000    46.9684928501    R0
Au    8.7600000000    10.1151760000    46.9786106757    R0
Au    17.5200000000    10.1151760000    46.9602339911    R0
Au    7.3000000000    2.5287940000    46.9815934464    R0
Au    11.6800000000    10.1151760000    46.9637231923    R0
Au    2.9200000000    5.0575880000    46.961230127099995    R0
Au    11.6800000000    5.0575880000    46.9751590188    R0
Au    5.8400000000    5.0575880000    46.9819837856    R0
Au    14.6000000000    5.0575880000    46.953647301800004    R0
Au    8.7600000000    5.0575880000    46.9963263665    R0
Au    8.760002    1.685863   48.80145264436466 R1
Au   13.140000    9.272246   48.80145264436466 R1
Au    2.920000    1.685863   48.80145264436466 R1
Au   11.680000    1.685863   48.80145264436466 R1
Au    7.300000    9.272246   48.80145264436466 R1
Au   16.059999    9.272246   48.80145264436466 R1
Au    5.840001    1.685863   48.80145264436466 R1
Au   14.600000    1.685863   48.80145264436466 R1
Au   10.220000    9.272246   48.80145264436466 R1
Au   18.980000    9.272246   48.80145264436466 R1
Au   10.220001    4.214657   48.80145264436466 R1
Au   14.600000   11.801040   48.80145264436466 R1
Au    4.380000    4.214657   48.80145264436466 R1
Au   13.140000    4.214657   48.80145264436466 R1
Au    8.760000   11.801040   48.80145264436466 R1
Au   17.520000   11.801040   48.80145264436466 R1
Au    7.300000    4.214657   48.80145264436466 R1
Au   16.059999    4.214657   48.80145264436466 R1
Au   11.680000   11.801040   48.80145264436466 R1
Au   20.440001   11.801040   48.80145264436466 R1
Au   11.680000    6.743451   48.80145264436466 R1
Au    5.840000    6.743451   48.80145264436466 R1
Au   14.600000    6.743451   48.80145264436466 R1
Au    8.760000    6.743451   48.80145264436466 R1
Au   17.520000    6.743451   48.80145264436466 R1
Au    1.460000    0.842931   51.185622644364656 R1
Au   10.220000    0.842931   51.185622644364656 R1
Au    5.840001    8.429314   51.185622644364656 R1
Au   14.600000    8.429314   51.185622644364656 R1
Au    4.380000    0.842931   51.185622644364656 R1
Au   13.140001    0.842931   51.185622644364656 R1
Au    8.760000    8.429314   51.185622644364656 R1
Au   17.520000    8.429314   51.185622644364656 R1
Au    7.300001    0.842931   51.185622644364656 R1
Au   11.680000    8.429314   51.185622644364656 R1
Au    2.920000    3.371726   51.185622644364656 R1
Au   11.680001    3.371726   51.185622644364656 R1
Au    7.300000   10.958109   51.185622644364656 R1
Au   16.059998   10.958109   51.185622644364656 R1
Au    5.840000    3.371726   51.185622644364656 R1
Au   14.600000    3.371726   51.185622644364656 R1
Au   10.220000   10.958109   51.185622644364656 R1
Au   18.980000   10.958109   51.185622644364656 R1
Au    8.760000    3.371726   51.185622644364656 R1
Au   13.139999   10.958109   51.185622644364656 R1
Au    4.380000    5.900520   51.185622644364656 R1
Au   13.140000    5.900520   51.185622644364656 R1
Au    7.300000    5.900520   51.185622644364656 R1
Au   16.059999    5.900520   51.185622644364656 R1
Au   10.220000    5.900520   51.185622644364656 R1
Au    0.000000    0.000000   53.56979264436466 R1
Au    8.760000    0.000000   53.56979264436466 R1
Au    4.380000    7.586382   53.56979264436466 R1
Au   13.139999    7.586382   53.56979264436466 R1
Au    2.920000    0.000000   53.56979264436466 R1
Au   11.680000    0.000000   53.56979264436466 R1
Au    7.300000    7.586382   53.56979264436466 R1
Au   16.059999    7.586382   53.56979264436466 R1
Au    5.840000    0.000000   53.56979264436466 R1
Au   10.220000    7.586382   53.56979264436466 R1
Au    1.460000    2.528794   53.56979264436466 R1
Au   10.220000    2.528794   53.56979264436466 R1
Au    5.840000   10.115176   53.56979264436466 R1
Au   14.600000   10.115176   53.56979264436466 R1
Au    4.380000    2.528794   53.56979264436466 R1
Au   13.140000    2.528794   53.56979264436466 R1
Au    8.760000   10.115176   53.56979264436466 R1
Au   17.520000   10.115176   53.56979264436466 R1
Au    7.300000    2.528794   53.56979264436466 R1
Au   11.680000   10.115176   53.56979264436466 R1
Au    2.920000    5.057588   53.56979264436466 R1
Au   11.680000    5.057588   53.56979264436466 R1
Au    5.840000    5.057588   53.56979264436466 R1
Au   14.600000    5.057588   53.56979264436466 R1
Au    8.760000    5.057588   53.56979264436466 R1
Au    8.760002    1.685863   55.95396264436466 R2
Au   13.140000    9.272246   55.95396264436466 R2
Au    2.920000    1.685863   55.95396264436466 R2
Au   11.680000    1.685863   55.95396264436466 R2
Au    7.300000    9.272246   55.95396264436466 R2
Au   16.059999    9.272246   55.95396264436466 R2
Au    5.840001    1.685863   55.95396264436466 R2
Au   14.600000    1.685863   55.95396264436466 R2
Au   10.220000    9.272246   55.95396264436466 R2
Au   18.980000    9.272246   55.95396264436466 R2
Au   10.220001    4.214657   55.95396264436466 R2
Au   14.600000   11.801040   55.95396264436466 R2
Au    4.380000    4.214657   55.95396264436466 R2
Au   13.140000    4.214657   55.95396264436466 R2
Au    8.760000   11.801040   55.95396264436466 R2
Au   17.520000   11.801040   55.95396264436466 R2
Au    7.300000    4.214657   55.95396264436466 R2
Au   16.059999    4.214657   55.95396264436466 R2
Au   11.680000   11.801040   55.95396264436466 R2
Au   20.440001   11.801040   55.95396264436466 R2
Au   11.680000    6.743451   55.95396264436466 R2
Au    5.840000    6.743451   55.95396264436466 R2
Au   14.600000    6.743451   55.95396264436466 R2
Au    8.760000    6.743451   55.95396264436466 R2
Au   17.520000    6.743451   55.95396264436466 R2
Au    1.460000    0.842931   58.338132644364656 R2
Au   10.220000    0.842931   58.338132644364656 R2
Au    5.840001    8.429314   58.338132644364656 R2
Au   14.600000    8.429314   58.338132644364656 R2
Au    4.380000    0.842931   58.338132644364656 R2
Au   13.140001    0.842931   58.338132644364656 R2
Au    8.760000    8.429314   58.338132644364656 R2
Au   17.520000    8.429314   58.338132644364656 R2
Au    7.300001    0.842931   58.338132644364656 R2
Au   11.680000    8.429314   58.338132644364656 R2
Au    2.920000    3.371726   58.338132644364656 R2
Au   11.680001    3.371726   58.338132644364656 R2
Au    7.300000   10.958109   58.338132644364656 R2
Au   16.059998   10.958109   58.338132644364656 R2
Au    5.840000    3.371726   58.338132644364656 R2
Au   14.600000    3.371726   58.338132644364656 R2
Au   10.220000   10.958109   58.338132644364656 R2
Au   18.980000   10.958109   58.338132644364656 R2
Au    8.760000    3.371726   58.338132644364656 R2
Au   13.139999   10.958109   58.338132644364656 R2
Au    4.380000    5.900520   58.338132644364656 R2
Au   13.140000    5.900520   58.338132644364656 R2
Au    7.300000    5.900520   58.338132644364656 R2
Au   16.059999    5.900520   58.338132644364656 R2
Au   10.220000    5.900520   58.338132644364656 R2
Au    0.000000    0.000000   60.72230264436466 R2
Au    8.760000    0.000000   60.72230264436466 R2
Au    4.380000    7.586382   60.72230264436466 R2
Au   13.139999    7.586382   60.72230264436466 R2
Au    2.920000    0.000000   60.72230264436466 R2
Au   11.680000    0.000000   60.72230264436466 R2
Au    7.300000    7.586382   60.72230264436466 R2
Au   16.059999    7.586382   60.72230264436466 R2
Au    5.840000    0.000000   60.72230264436466 R2
Au   10.220000    7.586382   60.72230264436466 R2
Au    1.460000    2.528794   60.72230264436466 R2
Au   10.220000    2.528794   60.72230264436466 R2
Au    5.840000   10.115176   60.72230264436466 R2
Au   14.600000   10.115176   60.72230264436466 R2
Au    4.380000    2.528794   60.72230264436466 R2
Au   13.140000    2.528794   60.72230264436466 R2
Au    8.760000   10.115176   60.72230264436466 R2
Au   17.520000   10.115176   60.72230264436466 R2
Au    7.300000    2.528794   60.72230264436466 R2
Au   11.680000   10.115176   60.72230264436466 R2
Au    2.920000    5.057588   60.72230264436466 R2
Au   11.680000    5.057588   60.72230264436466 R2
Au    5.840000    5.057588   60.72230264436466 R2
Au   14.600000    5.057588   60.72230264436466 R2
Au    8.760000    5.057588   60.72230264436466 R2
Au    8.760002    1.685863   63.10647264436466 R3
Au   13.140000    9.272246   63.10647264436466 R3
Au    2.920000    1.685863   63.10647264436466 R3
Au   11.680000    1.685863   63.10647264436466 R3
Au    7.300000    9.272246   63.10647264436466 R3
Au   16.059999    9.272246   63.10647264436466 R3
Au    5.840001    1.685863   63.10647264436466 R3