     181
 i =       56, E =     -5080.2514823199
 Au         0.0000000000        0.0000000000       -0.5622985830
 Au         8.7600000000        0.0000000000       -0.5658821167
 Au         4.3800000000        7.5863820000       -0.5657726855
 Au        13.1400000000        7.5863820000       -0.5548618075
 Au         2.9200000000        0.0000000000       -0.5653910561
 Au        11.6800000000        0.0000000000       -0.5651740191
 Au         7.3000000000        7.5863820000       -0.5876798512
 Au        16.0599990000        7.5863820000       -0.5591436902
 Au         5.8400000000        0.0000000000       -0.5630906276
 Au        10.2200000000        7.5863820000       -0.5811550460
 Au         1.4600000000        2.5287940000       -0.5612284554
 Au        10.2200000000        2.5287940000       -0.5835891834
 Au         5.8400000000       10.1151760000       -0.5649514553
 Au        14.6000000000       10.1151760000       -0.5589408836
 Au         4.3800000000        2.5287940000       -0.5641571033
 Au        13.1400000000        2.5287940000       -0.5690897443
 Au         8.7600000000       10.1151760000       -0.5767839102
 Au        17.5200000000       10.1151760000       -0.5595143449
 Au         7.3000000000        2.5287940000       -0.5796759724
 Au        11.6800000000       10.1151760000       -0.5630926705
 Au         2.9200000000        5.0575880000       -0.5612964631
 Au        11.6800000000        5.0575880000       -0.5747927982
 Au         5.8400000000        5.0575880000       -0.5796248251
 Au        14.6000000000        5.0575880000       -0.5547600939
 Au         8.7600000000        5.0575880000       -0.5932702483
 Au         1.4600000000        0.8429310000        2.0616176686
 Au        10.2200000000        0.8429310000        2.0530429971
 Au         5.8400000000        8.4293140000        2.0519071881
 Au        14.6000000000        8.4293140000        2.0653100182
 Au         4.3800000000        0.8429310000        2.0608154251
 Au        13.1400000000        0.8429310000        2.0588430562
 Au         8.7600000000        8.4293140000        2.0334817045
 Au        17.5200000000        8.4293140000        2.0626505707
 Au         7.3000000000        0.8429310000        2.0559583473
 Au        11.6800000000        8.4293140000        2.0584579697
 Au         2.9200000000        3.3717260000        2.0616465715
 Au        11.6800000000        3.3717260000        2.0413010656
 Au         7.3000000000       10.9581080000        2.0572369763
 Au        16.0599990000       10.9581080000        2.0622651454
 Au         5.8400000000        3.3717260000        2.0503482870
 Au        14.6000000000        3.3717260000        2.0611522132
 Au        10.2200000000       10.9581080000        2.0528233174
 Au        18.9800000000       10.9581080000        2.0620277660
 Au         8.7600000000        3.3717260000        2.0302188663
 Au        13.1400000000       10.9581080000        2.0623173781
 Au         4.3800000000        5.9005200000        2.0560344778
 Au        13.1400000000        5.9005200000        2.0668088502
 Au         7.3000000000        5.9005200000        2.0296730048
 Au        16.0599990000        5.9005200000        2.0643679111
 Au        10.2200000000        5.9005200000        2.0331367941
 Au         8.7600000000        1.6858630000        4.6722128673
 Au        13.1400000000        9.2722450000        4.6851042089
 Au         2.9200000000        1.6858630000        4.6872341512
 Au        11.6800000000        1.6858630000        4.6757402575
 Au         7.3000000000        9.2722450000        4.6739703830
 Au        16.0599990000        9.2722450000        4.6879979430
 Au         5.8400000000        1.6858630000        4.6810125194
 Au        14.6000000000        1.6858630000        4.6854854792
 Au        10.2200000000        9.2722450000        4.6630650559
 Au        18.9800000000        9.2722450000        4.6845050255
 Au        10.2200000000        4.2146570000        4.6309090473
 Au        14.6000000000       11.8010400000        4.6865132866
 Au         4.3800000000        4.2146570000        4.6811488776
 Au        13.1400000000        4.2146570000        4.6779778653
 Au         8.7600000000       11.8010400000        4.6835906939
 Au        17.5200000000       11.8010400000        4.6855247494
 Au         7.3000000000        4.2146570000        4.6622443859
 Au        16.0599990000        4.2146570000        4.6877143934
 Au        11.6800000000       11.8010400000        4.6858712102
 Au        20.4400010000       11.8010400000        4.6866063290
 Au        11.6800000000        6.7434510000        4.6763678382
 Au         5.8400000000        6.7434510000        4.6708962826
 Au        14.6000000000        6.7434510000        4.6869126438
 Au         8.7600000000        6.7434510000        4.6292049833
 Au        17.5200000000        6.7434510000        4.6856757312
  C        11.0017961482        6.3776842768       17.0099232891
  C        11.5511451288        7.5517728900       16.4831137576
  C        12.5135130156        7.4782577550       15.4753328336
  C        12.9420889476        6.2381931535       14.9745301462
  C        11.4480910567        5.1336980548       16.5505233253
  C        12.4098459339        5.0684099436       15.5411967149
  C        12.9521300616        6.2285667042        9.9780401865
  H        12.9297200751        8.3973873181       15.0561125694
  H        10.2049962919        6.4319737233       17.7534156845
  H        11.0337357204        4.2152942982       16.9700090448
  H        12.7432600169        4.0952130640       15.1735298176
  H        11.2158305465        8.5234356589       16.8492580959
  C        12.5263167172        7.4684531109        9.4748921358
  C        11.5712177451        7.5421860994        8.4606706260
  C        11.0265434941        6.3687914805        7.9284399710
  C        11.4701631263        5.1251626494        8.3902171168
  C        12.4240041325        5.0595305195        9.4066467571
  H        11.2383402648        8.5136547213        8.0928049199
  H        12.9386462123        8.3872657862        9.8977083591
  H        11.0590429097        4.2074172405        7.9666136129
  H        12.7543613266        4.0861537231        9.7759680775
  H        10.2355838750        6.4235480729        7.1788813363
  C        13.8578078004        6.1698162161       13.7767490944
  C        13.8615783528        6.1608885503       11.1803389780
  C        13.0342016603        6.2432436940       12.4769331790
  H        14.5903207719        6.9864610069       11.1532889779
  H        14.4378725522        5.2227149051       11.1682280332
  H        14.5820326493        6.9994934766       13.8028658637
  H        14.4386792433        5.2342362500       13.7948304263
  H        12.2892877226        5.4318512474       12.4785733229
  H        12.4538623300        7.1794984514       12.4726247370
 Au         8.7600020000        1.6858630000       20.2733015307
 Au        13.1400000000        9.2722460000       20.2574895310
 Au         2.9200000000        1.6858630000       20.2557392351
 Au        11.6800000000        1.6858630000       20.2685481738
 Au         7.3000000000        9.2722460000       20.2720156916
 Au        16.0599990000        9.2722460000       20.2551956636
 Au         5.8400010000        1.6858630000       20.2635404624
 Au        14.6000000000        1.6858630000       20.2576708991
 Au        10.2200000000        9.2722460000       20.2814495345
 Au        18.9800000000        9.2722460000       20.2600635413
 Au        10.2200010000        4.2146570000       20.3129897632
 Au        14.6000000000       11.8010400000       20.2579263139
 Au         4.3800000000        4.2146570000       20.2631951766
 Au        13.1400000000        4.2146570000       20.2639195002
 Au         8.7600000000       11.8010400000       20.2610098261
 Au        17.5200000000       11.8010400000       20.2592505001
 Au         7.3000000000        4.2146570000       20.2843264688
 Au        16.0599990000        4.2146570000       20.2540426877
 Au        11.6800000000       11.8010400000       20.2584590016
 Au        20.4400010000       11.8010400000       20.2580408950
 Au        11.6800000000        6.7434510000       20.2642862282
 Au         5.8400000000        6.7434510000       20.2753064606
 Au        14.6000000000        6.7434510000       20.2546698309
 Au         8.7600000000        6.7434510000       20.3172987776
 Au        17.5200000000        6.7434510000       20.2575908273
 Au         1.4600000000        0.8429310000       22.8815296257
 Au        10.2200000000        0.8429310000       22.8915227166
 Au         5.8400010000        8.4293140000       22.8932416335
 Au        14.6000000000        8.4293140000       22.8766649321
 Au         4.3800000000        0.8429310000       22.8827796429
 Au        13.1400010000        0.8429310000       22.8848576563
 Au         8.7600000000        8.4293140000       22.9118116382
 Au        17.5200000000        8.4293140000       22.8806626133
 Au         7.3000010000        0.8429310000       22.8885550374
 Au        11.6800000000        8.4293140000       22.8842766966
 Au         2.9200000000        3.3717260000       22.8809900650
 Au        11.6800010000        3.3717260000       22.9018800112
 Au         7.3000000000       10.9581090000       22.8874315919
 Au        16.0599980000       10.9581090000       22.8813787290
 Au         5.8400000000        3.3717260000       22.8944867792
 Au        14.6000000000        3.3717260000       22.8805381733
 Au        10.2200000000       10.9581090000       22.8913678230
 Au        18.9800000000       10.9581090000       22.8823942367
 Au         8.7600000000        3.3717260000       22.9146165675
 Au        13.1399990000       10.9581090000       22.8813471868
 Au         4.3800000000        5.9005200000       22.8883196529
 Au        13.1400000000        5.9005200000       22.8751424184
 Au         7.3000000000        5.9005200000       22.9164620788
 Au        16.0599990000        5.9005200000       22.8771924499
 Au        10.2200000000        5.9005200000       22.9108597437
 Au         0.0000000000        0.0000000000       25.5056887605
 Au         8.7600000000        0.0000000000       25.5096271534
 Au         4.3800000000        7.5863820000       25.5094116949
 Au        13.1399990000        7.5863820000       25.4966742937
 Au         2.9200000000        0.0000000000       25.5082409915
 Au        11.6800000000        0.0000000000       25.5087195368
 Au         7.3000000000        7.5863820000       25.5330016699
 Au        16.0599990000        7.5863820000       25.5003406827
 Au         5.8400000000        0.0000000000       25.5064528131
 Au        10.2200000000        7.5863820000       25.5251042686
 Au         1.4600000000        2.5287940000       25.5028553246
 Au        10.2200000000        2.5287940000       25.5274692055
 Au         5.8400000000       10.1151760000       25.5093045445
 Au        14.6000000000       10.1151760000       25.5013165299
 Au         4.3800000000        2.5287940000       25.5069756451
 Au        13.1400000000        2.5287940000       25.5109627861
 Au         8.7600000000       10.1151760000       25.5210806117
 Au        17.5200000000       10.1151760000       25.5027039271
 Au         7.3000000000        2.5287940000       25.5240633824
 Au        11.6800000000       10.1151760000       25.5061931283
 Au         2.9200000000        5.0575880000       25.5037000631
 Au        11.6800000000        5.0575880000       25.5176289548
 Au         5.8400000000        5.0575880000       25.5244537216
 Au        14.6000000000        5.0575880000       25.4961172378
 Au         8.7600000000        5.0575880000       25.5387963025
