     181
 i =       29, E =     -5080.2514777936
 Au         0.0000000000        0.0000000000       -0.2396274192
 Au         8.7600000000        0.0000000000       -0.2404093412
 Au         4.3800000000        7.5863820000       -0.2397219857
 Au        13.1400000000        7.5863820000       -0.2282015498
 Au         2.9200000000        0.0000000000       -0.2404339905
 Au        11.6800000000        0.0000000000       -0.2395365880
 Au         7.3000000000        7.5863820000       -0.2418842425
 Au        16.0599990000        7.5863820000       -0.2369014007
 Au         5.8400000000        0.0000000000       -0.2395024363
 Au        10.2200000000        7.5863820000       -0.2358551195
 Au         1.4600000000        2.5287940000       -0.2383133615
 Au        10.2200000000        2.5287940000       -0.2420473175
 Au         5.8400000000       10.1151760000       -0.2393686343
 Au        14.6000000000       10.1151760000       -0.2379327262
 Au         4.3800000000        2.5287940000       -0.2393822613
 Au        13.1400000000        2.5287940000       -0.2354641582
 Au         8.7600000000       10.1151760000       -0.2406870802
 Au        17.5200000000       10.1151760000       -0.2396495801
 Au         7.3000000000        2.5287940000       -0.2425665186
 Au        11.6800000000       10.1151760000       -0.2363117117
 Au         2.9200000000        5.0575880000       -0.2389359097
 Au        11.6800000000        5.0575880000       -0.2334634036
 Au         5.8400000000        5.0575880000       -0.2412970197
 Au        14.6000000000        5.0575880000       -0.2294128606
 Au         8.7600000000        5.0575880000       -0.2435881735
 Au         1.4600000000        0.8429310000        2.3823213022
 Au        10.2200000000        0.8429310000        2.3823825117
 Au         5.8400000000        8.4293140000        2.3824770087
 Au        14.6000000000        8.4293140000        2.3879240777
 Au         4.3800000000        0.8429310000        2.3825401632
 Au        13.1400000000        0.8429310000        2.3843185478
 Au         8.7600000000        8.4293140000        2.3819192238
 Au        17.5200000000        8.4293140000        2.3826756512
 Au         7.3000000000        0.8429310000        2.3820745374
 Au        11.6800000000        8.4293140000        2.3907760616
 Au         2.9200000000        3.3717260000        2.3829197977
 Au        11.6800000000        3.3717260000        2.3839799774
 Au         7.3000000000       10.9581080000        2.3827251378
 Au        16.0599990000       10.9581080000        2.3824662672
 Au         5.8400000000        3.3717260000        2.3818555295
 Au        14.6000000000        3.3717260000        2.3887191189
 Au        10.2200000000       10.9581080000        2.3831145699
 Au        18.9800000000       10.9581080000        2.3828316085
 Au         8.7600000000        3.3717260000        2.3762992240
 Au        13.1400000000       10.9581080000        2.3842731570
 Au         4.3800000000        5.9005200000        2.3821255912
 Au        13.1400000000        5.9005200000        2.3959433153
 Au         7.3000000000        5.9005200000        2.3792641712
 Au        16.0599990000        5.9005200000        2.3865248979
 Au        10.2200000000        5.9005200000        2.3819043495
 Au         8.7600000000        1.6858630000        5.0040224113
 Au        13.1400000000        9.2722450000        5.0110298026
 Au         2.9200000000        1.6858630000        5.0044213985
 Au        11.6800000000        1.6858630000        5.0080867113
 Au         7.3000000000        9.2722450000        5.0059667411
 Au        16.0599990000        9.2722450000        5.0054664778
 Au         5.8400000000        1.6858630000        5.0052358799
 Au        14.6000000000        1.6858630000        5.0071104092
 Au        10.2200000000        9.2722450000        5.0096504682
 Au        18.9800000000        9.2722450000        5.0049549615
 Au        10.2200000000        4.2146570000        4.9899802388
 Au        14.6000000000       11.8010400000        5.0051953617
 Au         4.3800000000        4.2146570000        5.0045472053
 Au        13.1400000000        4.2146570000        5.0161249191
 Au         8.7600000000       11.8010400000        5.0049752860
 Au        17.5200000000       11.8010400000        5.0053301081
 Au         7.3000000000        4.2146570000        5.0027432583
 Au        16.0599990000        4.2146570000        5.0075662230
 Au        11.6800000000       11.8010400000        5.0062071204
 Au        20.4400010000       11.8010400000        5.0062782374
 Au        11.6800000000        6.7434510000        5.0138219602
 Au         5.8400000000        6.7434510000        5.0041170118
 Au        14.6000000000        6.7434510000        5.0124658320
 Au         8.7600000000        6.7434510000        4.9989589123
 Au        17.5200000000        6.7434510000        5.0047822516
  C        11.0448935631        5.7375324150       18.3013161769
  C        11.3536135371        6.9711391871       17.7204162505
  C        12.1728476549        7.0257292405       16.5906368659
  C        12.6980608307        5.8550821227       16.0204090809
  C        11.5723823629        4.5638438884       17.7549830212
  C        12.3901427122        4.6254901063       16.6245131122
  C        12.6955858173        5.8498476292       10.9420129298
  H        12.4115117708        7.9928669111       16.1420436376
  H        10.3911700904        5.6905880502       19.1737873663
  H        11.3440000070        3.5988946271       18.2105264761
  H        12.7992535427        3.7048561365       16.2020524618
  H        10.9537489024        7.8915200051       18.1490502279
  C        12.2054216886        7.0235247413       10.3476678428
  C        11.3860099452        6.9702071976        9.2177591648
  C        11.0414069949        5.7348300393        8.6615645241
  C        11.5334885137        4.5573443987        9.2324491821
  C        12.3517559811        4.6178097235       10.3624693220
  H        11.0138089127        7.8931551326        8.7700687821
  H        12.4721142616        7.9920807463       10.7769464306
  H        11.2770807604        3.5905183450        8.7962666058
  H        12.7331408712        3.6941719113       10.8039062776
  H        10.3876302047        5.6895793168        7.7890261548
  C        13.5311647611        5.9132975649       14.7625945848
  C        13.5298113320        5.9079373268       12.1991190728
  C        12.6782813704        5.8499175714       13.4814196259
  H        14.1260611261        6.8346381441       12.2054943306
  H        14.2475096265        5.0717064536       12.2069394573
  H        14.1242492329        6.8421067547       14.7532603390
  H        14.2517074673        5.0795773160       14.7561516570
  H        12.0794011835        4.9252135518       13.4837929261
  H        11.9546441263        6.6805384021       13.4800542455
 Au         8.7600020000        1.6858630000       21.9526476625
 Au        13.1400000000        9.2722460000       21.9484624176
 Au         2.9200000000        1.6858630000       21.9516182287
 Au        11.6800000000        1.6858630000       21.9501977209
 Au         7.3000000000        9.2722460000       21.9503152890
 Au        16.0599990000        9.2722460000       21.9514852184
 Au         5.8400010000        1.6858630000       21.9505693562
 Au        14.6000000000        1.6858630000       21.9500826006
 Au        10.2200000000        9.2722460000       21.9487947927
 Au        18.9800000000        9.2722460000       21.9508088884
 Au        10.2200010000        4.2146570000       21.9701231452
 Au        14.6000000000       11.8010400000       21.9510418661
 Au         4.3800000000        4.2146570000       21.9515052431
 Au        13.1400000000        4.2146570000       21.9440810595
 Au         8.7600000000       11.8010400000       21.9511181903
 Au        17.5200000000       11.8010400000       21.9506898495
 Au         7.3000000000        4.2146570000       21.9539480675
 Au        16.0599990000        4.2146570000       21.9511481043
 Au        11.6800000000       11.8010400000       21.9502021723
 Au        20.4400010000       11.8010400000       21.9497281953
 Au        11.6800000000        6.7434510000       21.9459625140
 Au         5.8400000000        6.7434510000       21.9519463476
 Au        14.6000000000        6.7434510000       21.9479794519
 Au         8.7600000000        6.7434510000       21.9594660672
 Au        17.5200000000        6.7434510000       21.9520438751
 Au         1.4600000000        0.8429310000       24.5746551842
 Au        10.2200000000        0.8429310000       24.5751200403
 Au         5.8400010000        8.4293140000       24.5741751352
 Au        14.6000000000        8.4293140000       24.5715299862
 Au         4.3800000000        0.8429310000       24.5740692994
 Au        13.1400010000        0.8429310000       24.5733669881
 Au         8.7600000000        8.4293140000       24.5763089308
 Au        17.5200000000        8.4293140000       24.5743147489
 Au         7.3000010000        0.8429310000       24.5746437385
 Au        11.6800000000        8.4293140000       24.5687131350
 Au         2.9200000000        3.3717260000       24.5744703389
 Au        11.6800010000        3.3717260000       24.5759877908
 Au         7.3000000000       10.9581090000       24.5739974195
 Au        16.0599980000       10.9581090000       24.5743926549
 Au         5.8400000000        3.3717260000       24.5748583589
 Au        14.6000000000        3.3717260000       24.5705520812
 Au        10.2200000000       10.9581090000       24.5742988770
 Au        18.9800000000       10.9581090000       24.5737067303
 Au         8.7600000000        3.3717260000       24.5821313226
 Au        13.1399990000       10.9581090000       24.5734473028
 Au         4.3800000000        5.9005200000       24.5747178128
 Au        13.1400000000        5.9005200000       24.5644067919
 Au         7.3000000000        5.9005200000       24.5783218127
 Au        16.0599990000        5.9005200000       24.5726923054
 Au        10.2200000000        5.9005200000       24.5778208843
 Au         0.0000000000        0.0000000000       27.1971611192
 Au         8.7600000000        0.0000000000       27.1978041916
 Au         4.3800000000        7.5863820000       27.1969777714
 Au        13.1399990000        7.5863820000       27.1884205889
 Au         2.9200000000        0.0000000000       27.1978436190
 Au        11.6800000000        0.0000000000       27.1972392644
 Au         7.3000000000        7.5863820000       27.1998090626
 Au        16.0599990000        7.5863820000       27.1958879770
 Au         5.8400000000        0.0000000000       27.1968835456
 Au        10.2200000000        7.5863820000       27.1953798500
 Au         1.4600000000        2.5287940000       27.1966456171
 Au        10.2200000000        2.5287940000       27.2012169745
 Au         5.8400000000       10.1151760000       27.1965044419
 Au        14.6000000000       10.1151760000       27.1963465482
 Au         4.3800000000        2.5287940000       27.1966885686
 Au        13.1400000000        2.5287940000       27.1949442848
 Au         8.7600000000       10.1151760000       27.1985923266
 Au        17.5200000000       10.1151760000       27.1968607315
 Au         7.3000000000        2.5287940000       27.2002651498
 Au        11.6800000000       10.1151760000       27.1949598089
 Au         2.9200000000        5.0575880000       27.1971643385
 Au        11.6800000000        5.0575880000       27.1938966556
 Au         5.8400000000        5.0575880000       27.1987311873
 Au        14.6000000000        5.0575880000       27.1896658641
 Au         8.7600000000        5.0575880000       27.2026463597