      44
 i =       64, E =      -147.2815589871
  C        -1.0723138214      -10.4779549048        4.0188252432
  C        -1.0825459957      -11.5400533250        4.9418343960
  C        -1.4372439051      -11.2957122528        6.2664327896
  C        -1.7790264067      -10.0017033777        6.6982201634
  C        -1.4035508677       -9.1824187800        4.4231804185
  C        -1.7503023891       -8.9594687365        5.7593182428
  C        -0.3722704806       -8.4838630788       12.7750071406
  H        -1.4547702922      -12.1221495935        6.9821840493
  H        -1.4091314082       -8.3587662059        3.7086840535
  H        -2.0232427612       -7.9498388194        6.0745562243
  C        -0.3408730859       -9.5233973471       13.7165940457
  C        -0.6790789215       -9.3125958318       15.0570334492
  C        -1.0634644242       -8.0324120553       15.4628016639
  C        -1.1144858767       -6.9736219604       14.5370893939
  C        -0.7669606744       -7.2053497779       13.2084395583
  H        -0.6257429032      -10.1330154562       15.7732646697
  H        -0.0263066043      -10.5203454630       13.3998280987
  H        -0.7967341133       -6.3808589106       12.4908237606
  C        -2.1266637065       -9.7358270992        8.1436511284
  C        -0.0302751351       -8.7373922892       11.3260587608
  C        -1.2550368490       -9.1087812295       10.4691976848
  C        -0.9023908736       -9.3694901168        9.0032030610
  H        -2.0004152747       -8.2984266130       10.5353601734
  H        -1.7390639339      -10.0006849742       10.9012046682
  H        -0.4141129875       -8.4792276313        8.5725352715
  H        -0.1600629752      -10.1826379200        8.9375503373
  H        -2.6144371447      -10.6245646197        8.5758976373
  H        -2.8627714476       -8.9177805054        8.2025519299
  H         0.7123423554       -9.5487844577       11.2591029846
  H         0.4481603353       -7.8421874460       10.8965060188
  S        -1.5348375045       -7.5499656870       17.0965425823
  S        -0.6002847338      -10.9774848472        2.3903886599
  C        -1.3611581860       -5.7743204217       16.6502355863
  C        -1.6214208208       -5.6842617594       15.1396612523
  H        -0.3388368110       -5.4563097752       16.8985773851
  H        -2.0723634650       -5.1910729217       17.2466784315
  H        -1.1396155098       -4.7959802310       14.7062922649
  H        -2.7057661677       -5.5984935307       14.9508721799
  C        -0.6266729108      -12.8498702272        4.3426131396
  C        -0.8612401755      -12.7443989210        2.8288566282
  H        -1.1547859276      -13.7161230951        4.7665538576
  H         0.4498066240      -12.9857818807        4.5463999235
  H        -1.8934697101      -13.0146268237        2.5653734907
  H        -0.1691639591      -13.3582094759        2.2406426631
