 420
 i =       82, E =     -3365.3998523447
Au     0.000000     0.000000     0.000000     L3
Au     8.760000     0.000000     0.000000     L3
Au     4.380000     7.586382     0.000000     L3
Au     13.140000     7.586382     0.000000     L3
Au     2.920000     0.000000     0.000000     L3
Au     11.680000     0.000000     0.000000     L3
Au     7.300000     7.586382     0.000000     L3
Au     16.059999     7.586382     0.000000     L3
Au     5.840000     0.000000     0.000000     L3
Au     10.220000     7.586382     0.000000     L3
Au     1.460000     2.528794     0.000000     L3
Au     10.220000     2.528794     0.000000     L3
Au     5.840000     10.115176     0.000000     L3
Au     14.600000     10.115176     0.000000     L3
Au     4.380000     2.528794     0.000000     L3
Au     13.140000     2.528794     0.000000     L3
Au     8.760000     10.115176     0.000000     L3
Au     17.520000     10.115176     0.000000     L3
Au     7.300000     2.528794     0.000000     L3
Au     11.680000     10.115176     0.000000     L3
Au     2.920000     5.057588     0.000000     L3
Au     11.680000     5.057588     0.000000     L3
Au     5.840000     5.057588     0.000000     L3
Au     14.600000     5.057588     0.000000     L3
Au     8.760000     5.057588     0.000000     L3
Au     1.460000     0.842931     2.384170     L3
Au     10.220000     0.842931     2.384170     L3
Au     5.840000     8.429314     2.384170     L3
Au     14.600000     8.429314     2.384170     L3
Au     4.380000     0.842931     2.384170     L3
Au     13.140000     0.842931     2.384170     L3
Au     8.760000     8.429314     2.384170     L3
Au     17.520000     8.429314     2.384170     L3
Au     7.300000     0.842931     2.384170     L3
Au     11.680000     8.429314     2.384170     L3
Au     2.920000     3.371726     2.384170     L3
Au     11.680000     3.371726     2.384170     L3
Au     7.300000     10.958108     2.384170     L3
Au     16.059999     10.958108     2.384170     L3
Au     5.840000     3.371726     2.384170     L3
Au     14.600000     3.371726     2.384170     L3
Au     10.220000     10.958108     2.384170     L3
Au     18.980000     10.958108     2.384170     L3
Au     8.760000     3.371726     2.384170     L3
Au     13.140000     10.958108     2.384170     L3
Au     4.380000     5.900520     2.384170     L3
Au     13.140000     5.900520     2.384170     L3
Au     7.300000     5.900520     2.384170     L3
Au     16.059999     5.900520     2.384170     L3
Au     10.220000     5.900520     2.384170     L3
Au     8.760000     1.685863     4.768340     L3
Au     13.140000     9.272245     4.768340     L3
Au     2.920000     1.685863     4.768340     L3
Au     11.680000     1.685863     4.768340     L3
Au     7.300000     9.272245     4.768340     L3
Au     16.059999     9.272245     4.768340     L3
Au     5.840000     1.685863     4.768340     L3
Au     14.600000     1.685863     4.768340     L3
Au     10.220000     9.272245     4.768340     L3
Au     18.980000     9.272245     4.768340     L3
Au     10.220000     4.214657     4.768340     L3
Au     14.600000     11.801040     4.768340     L3
Au     4.380000     4.214657     4.768340     L3
Au     13.140000     4.214657     4.768340     L3
Au     8.760000     11.801040     4.768340     L3
Au     17.520000     11.801040     4.768340     L3
Au     7.300000     4.214657     4.768340     L3
Au     16.059999     4.214657     4.768340     L3
Au     11.680000     11.801040     4.768340     L3
Au     20.440001     11.801040     4.768340     L3
Au     11.680000     6.743451     4.768340     L3
Au     5.840000     6.743451     4.768340     L3
Au     14.600000     6.743451     4.768340     L3
Au     8.760000     6.743451     4.768340     L3
Au     17.520000     6.743451     4.768340     L3
Au     0.000000     0.000000     7.152510     L2
Au     8.760000     0.000000     7.152510     L2
Au     4.380000     7.586382     7.152510     L2
Au     13.140000     7.586382     7.152510     L2
Au     2.920000     0.000000     7.152510     L2
Au     11.680000     0.000000     7.152510     L2
Au     7.300000     7.586382     7.152510     L2
Au     16.059999     7.586382     7.152510     L2
Au     5.840000     0.000000     7.152510     L2
Au     10.220000     7.586382     7.152510     L2
Au     1.460000     2.528794     7.152510     L2
Au     10.220000     2.528794     7.152510     L2
Au     5.840000     10.115176     7.152510     L2
Au     14.600000     10.115176     7.152510     L2
Au     4.380000     2.528794     7.152510     L2
Au     13.140000     2.528794     7.152510     L2
Au     8.760000     10.115176     7.152510     L2
Au     17.520000     10.115176     7.152510     L2
Au     7.300000     2.528794     7.152510     L2
Au     11.680000     10.115176     7.152510     L2
Au     2.920000     5.057588     7.152510     L2
Au     11.680000     5.057588     7.152510     L2
Au     5.840000     5.057588     7.152510     L2
Au     14.600000     5.057588     7.152510     L2
Au     8.760000     5.057588     7.152510     L2
Au     1.460000     0.842931     9.536680     L2
Au     10.220000     0.842931     9.536680     L2
Au     5.840000     8.429314     9.536680     L2
Au     14.600000     8.429314     9.536680     L2
Au     4.380000     0.842931     9.536680     L2
Au     13.140000     0.842931     9.536680     L2
Au     8.760000     8.429314     9.536680     L2
Au     17.520000     8.429314     9.536680     L2
Au     7.300000     0.842931     9.536680     L2
Au     11.680000     8.429314     9.536680     L2
Au     2.920000     3.371726     9.536680     L2
Au     11.680000     3.371726     9.536680     L2
Au     7.300000     10.958108     9.536680     L2
Au     16.059999     10.958108     9.536680     L2
Au     5.840000     3.371726     9.536680     L2
Au     14.600000     3.371726     9.536680     L2
Au     10.220000     10.958108     9.536680     L2
Au     18.980000     10.958108     9.536680     L2
Au     8.760000     3.371726     9.536680     L2
Au     13.140000     10.958108     9.536680     L2
Au     4.380000     5.900520     9.536680     L2
Au     13.140000     5.900520     9.536680     L2
Au     7.300000     5.900520     9.536680     L2
Au     16.059999     5.900520     9.536680     L2
Au     10.220000     5.900520     9.536680     L2
Au     8.760000     1.685863     11.920850     L2
Au     13.140000     9.272245     11.920850     L2
Au     2.920000     1.685863     11.920850     L2
Au     11.680000     1.685863     11.920850     L2
Au     7.300000     9.272245     11.920850     L2
Au     16.059999     9.272245     11.920850     L2
Au     5.840000     1.685863     11.920850     L2
Au     14.600000     1.685863     11.920850     L2
Au     10.220000     9.272245     11.920850     L2
Au     18.980000     9.272245     11.920850     L2
Au     10.220000     4.214657     11.920850     L2
Au     14.600000     11.801040     11.920850     L2
Au     4.380000     4.214657     11.920850     L2
Au     13.140000     4.214657     11.920850     L2
Au     8.760000     11.801040     11.920850     L2
Au     17.520000     11.801040     11.920850     L2
Au     7.300000     4.214657     11.920850     L2
Au     16.059999     4.214657     11.920850     L2
Au     11.680000     11.801040     11.920850     L2
Au     20.440001     11.801040     11.920850     L2
Au     11.680000     6.743451     11.920850     L2
Au     5.840000     6.743451     11.920850     L2
Au     14.600000     6.743451     11.920850     L2
Au     8.760000     6.743451     11.920850     L2
Au     17.520000     6.743451     11.920850     L2
Au     0.000000     0.000000     14.305019     L1
Au     8.760000     0.000000     14.305019     L1
Au     4.380000     7.586382     14.305019     L1
Au     13.140000     7.586382     14.305019     L1
Au     2.920000     0.000000     14.305019     L1
Au     11.680000     0.000000     14.305019     L1
Au     7.300000     7.586382     14.305019     L1
Au     16.059999     7.586382     14.305019     L1
Au     5.840000     0.000000     14.305019     L1
Au     10.220000     7.586382     14.305019     L1
Au     1.460000     2.528794     14.305019     L1
Au     10.220000     2.528794     14.305019     L1
Au     5.840000     10.115176     14.305019     L1
Au     14.600000     10.115176     14.305019     L1
Au     4.380000     2.528794     14.305019     L1
Au     13.140000     2.528794     14.305019     L1
Au     8.760000     10.115176     14.305019     L1
Au     17.520000     10.115176     14.305019     L1
Au     7.300000     2.528794     14.305019     L1
Au     11.680000     10.115176     14.305019     L1
Au     2.920000     5.057588     14.305019     L1
Au     11.680000     5.057588     14.305019     L1
Au     5.840000     5.057588     14.305019     L1
Au     14.600000     5.057588     14.305019     L1
Au     8.760000     5.057588     14.305019     L1
Au     1.460000     0.842931     16.689190     L1
Au     10.220000     0.842931     16.689190     L1
Au     5.840000     8.429314     16.689190     L1
Au     14.600000     8.429314     16.689190     L1
Au     4.380000     0.842931     16.689190     L1
Au     13.140000     0.842931     16.689190     L1
Au     8.760000     8.429314     16.689190     L1
Au     17.520000     8.429314     16.689190     L1
Au     7.300000     0.842931     16.689190     L1
Au     11.680000     8.429314     16.689190     L1
Au     2.920000     3.371726     16.689190     L1
Au     11.680000     3.371726     16.689190     L1
Au     7.300000     10.958108     16.689190     L1
Au     16.059999     10.958108     16.689190     L1
Au     5.840000     3.371726     16.689190     L1
Au     14.600000     3.371726     16.689190     L1
Au     10.220000     10.958108     16.689190     L1
Au     18.980000     10.958108     16.689190     L1
Au     8.760000     3.371726     16.689190     L1
Au     13.140000     10.958108     16.689190     L1
Au     4.380000     5.900520     16.689190     L1
Au     13.140000     5.900520     16.689190     L1
Au     7.300000     5.900520     16.689190     L1
Au     16.059999     5.900520     16.689190     L1
Au     10.220000     5.900520     16.689190     L1
Au     8.760000     1.685863     19.073360     L1
Au     13.140000     9.272245     19.073360     L1
Au     2.920000     1.685863     19.073360     L1
Au     11.680000     1.685863     19.073360     L1
Au     7.300000     9.272245     19.073360     L1
Au     16.059999     9.272245     19.073360     L1
Au     5.840000     1.685863     19.073360     L1
Au     14.600000     1.685863     19.073360     L1
Au     10.220000     9.272245     19.073360     L1
Au     18.980000     9.272245     19.073360     L1
Au     10.220000     4.214657     19.073360     L1
Au     14.600000     11.801040     19.073360     L1
Au     4.380000     4.214657     19.073360     L1
Au     13.140000     4.214657     19.073360     L1
Au     8.760000     11.801040     19.073360     L1
Au     17.520000     11.801040     19.073360     L1
Au     7.300000     4.214657     19.073360     L1
Au     16.059999     4.214657     19.073360     L1
Au     11.680000     11.801040     19.073360     L1
Au     20.440001     11.801040     19.073360     L1
Au     11.680000     6.743451     19.073360     L1
Au     5.840000     6.743451     19.073360     L1
Au     14.600000     6.743451     19.073360     L1
Au     8.760000     6.743451     19.073360     L1
Au     17.520000     6.743451     19.073360     L1
Au    0.0000000000    0.0000000000    21.0003457575    L0
Au    8.7600000000    0.0000000000    21.0166792609    L0
Au    4.3800000000    7.5863820000    20.995190568    L0
Au    13.1400000000    7.5863820000    20.9577050997    L0
Au    2.9200000000    0.0000000000    20.9942813841    L0
Au    11.6800000000    0.0000000000    21.0163818967    L0
Au    7.3000000000    7.5863820000    20.9656082699    L0
Au    16.0599990000    7.5863820000    20.9899897403    L0
Au    5.8400000000    0.0000000000    21.0010928755    L0
Au    10.2200000000    7.5863820000    20.9515242807    L0
Au    1.4600000000    2.5287940000    20.9980852683    L0
Au    10.2200000000    2.5287940000    21.0222777134    L0
Au    5.8400000000    10.1151760000    20.9984105026    L0
Au    14.6000000000    10.1151760000    20.9946177437    L0
Au    4.3800000000    2.5287940000    21.0027884103    L0
Au    13.1400000000    2.5287940000    21.005980721    L0
Au    8.7600000000    10.1151760000    20.9686183071    L0
Au    17.5200000000    10.1151760000    21.0112402998    L0
Au    7.3000000000    2.5287940000    21.0131486669    L0
Au    11.6800000000    10.1151760000    20.9658609353    L0
Au    2.9200000000    5.0575880000    20.9958204607    L0
Au    11.6800000000    5.0575880000    20.980156289900002    L0
Au    5.8400000000    5.0575880000    20.9890357491    L0
Au    14.6000000000    5.0575880000    20.9799227315    L0
Au    8.7600000000    5.0575880000    20.987734546    L0
Au    1.4600000000    0.8429310000    23.6221825036    L0
Au    10.2200000000    0.8429310000    23.6412969545    L0
Au    5.8400000000    8.4293140000    23.6109377029    L0
Au    14.6000000000    8.4293140000    23.6050998991    L0
Au    4.3800000000    0.8429310000    23.6243728655    L0
Au    13.1400000000    0.8429310000    23.6304763427    L0
Au    8.7600000000    8.4293140000    23.576140537    L0
Au    17.5200000000    8.4293140000    23.62555988    L0
Au    7.3000000000    0.8429310000    23.6329647508    L0
Au    11.6800000000    8.4293140000    23.5694781359    L0
Au    2.9200000000    3.3717260000    23.6252490309    L0
Au    11.6800000000    3.3717260000    23.6279540194    L0
Au    7.3000000000    10.9581080000    23.6140219515    L0
Au    16.0599990000    10.9581080000    23.6330934291    L0
Au    5.8400000000    3.3717260000    23.6230857132    L0
Au    14.6000000000    3.3717260000    23.6132514477    L0
Au    10.2200000000    10.9581080000    23.5998154507    L0
Au    18.9800000000    10.9581080000    23.634507956900002    L0
Au    8.7600000000    3.3717260000    23.6346053838    L0
Au    13.1400000000    10.9581080000    23.6118534378    L0
Au    4.3800000000    5.9005200000    23.6165619726    L0
Au    13.1400000000    5.9005200000    23.5828694514    L0
Au    7.3000000000    5.9005200000    23.5945453184    L0
Au    16.0599990000    5.9005200000    23.6118210883    L0
Au    10.2200000000    5.9005200000    23.5856191737    L0
Au    8.7600000000    1.6858630000    26.2584425955    L0
Au    13.1400000000    9.2722450000    26.2188832023    L0
Au    2.9200000000    1.6858630000    26.2509895492    L0
Au    11.6800000000    1.6858630000    26.2562103464    L0
Au    7.3000000000    9.2722450000    26.2246762939    L0
Au    16.0599990000    9.2722450000    26.2499144891    L0
Au    5.8400000000    1.6858630000    26.2523276201    L0
Au    14.6000000000    1.6858630000    26.2470602765    L0
Au    10.2200000000    9.2722450000    26.2015973738    L0
Au    18.9800000000    9.2722450000    26.2527712925    L0
Au    10.2200000000    4.2146570000    26.2420080912    L0
Au    14.6000000000    11.8010400000    26.2517168564    L0
Au    4.3800000000    4.2146570000    26.249142931999998    L0
Au    13.1400000000    4.2146570000    26.216982601799998    L0
Au    8.7600000000    11.8010400000    26.2369841909    L0
Au    17.5200000000    11.8010400000    26.2630851632    L0
Au    7.3000000000    4.2146570000    26.234693532    L0
Au    16.0599990000    4.2146570000    26.2442920288    L0
Au    11.6800000000    11.8010400000    26.2373329817    L0
Au    20.4400010000    11.8010400000    26.2524503725    L0
Au    11.6800000000    6.7434510000    26.1664388561    L0
Au    5.8400000000    6.7434510000    26.2303709256    L0
Au    14.6000000000    6.7434510000    26.2229925748    L0
Au    8.7600000000    6.7434510000    26.1816107346    L0
Au    17.5200000000    6.7434510000    26.2421241806    L0
C    10.4686994270    4.9029215454    41.0586996168    S
C    11.5641389663    4.1918866406    40.555134343    S
C    11.3780538537    3.2507507980    39.541657607800005    S
C    10.1006818694    3.0009199329    39.013311054599995    S
C    9.1844362303    4.6351426777    40.5711083037    S
C    9.0063770915    3.6919328764    39.5584691755    S
C    10.1082083812    3.0034007191    31.4711585642    S
H    12.2368529823    2.7078603848    39.1414134897    S
H    10.6207231780    5.6896128744    41.798948139000004    S
H    8.3255997278    5.1741223805    40.9737031312    S
H    8.0040150437    3.4938133491    39.1728249824    S
H    12.5645542163    4.3849429758    40.9444660016    S
C    9.0092775756    3.6919165151    30.9323204621    S
C    9.1814619081    4.6437784207    29.9262851537    S
C    10.4636616548    4.9218116252    29.4399064648    S
C    11.5635828460    4.2123120710    29.935810741    S
C    11.3830165326    3.2621835357    30.9426585868    S
H    8.3191082055    5.1810416838    29.5287914347    S
H    8.0086351526    3.4860765377    31.3181564765    S
H    12.5623614216    4.4131231645    29.546630658399998    S
H    12.2452365673    2.7207041773    31.3375784063    S
H    10.6111871532    5.7165524792    28.7069032474    S
C    9.9239785961    2.0898644974    37.8243970488    S
C    9.9370660747    2.0876473971    32.6577040031    S
C    10.0467663699    2.8756117163    33.97719692    S
C    10.0404201593    2.8774250870    36.5055297977    S
H    10.6846259622    1.2936112792    37.8437058431    S
H    8.9418630287    1.5932813583    37.8707444882    S
H    8.9582938266    1.5847355555    32.6099813261    S
H    10.7034408208    1.2969721940    32.6378964449    S
C    9.9062519727    2.0251010451    35.2415372187    S
H    11.0114636027    3.4004727139    36.491715493200005    S
H    9.2732425793    3.6696743170    36.4975446941    S
H    10.6727174818    1.2311760090    35.2442640317    S
H    8.9313759758    1.5078996370    35.2393395222    S
H    11.0174330334    3.3991812851    33.9953799999    S
H    9.2794728281    3.6677420934    33.9807208692    S
Au    8.7600020000    1.6858630000    44.2601179118    R0
Au    13.1400000000    9.2722460000    44.299944324    R0
Au    2.9200000000    1.6858630000    44.2691589146    R0
Au    11.6800000000    1.6858630000    44.2619088009    R0
Au    7.3000000000    9.2722460000    44.2943958202    R0
Au    16.0599990000    9.2722460000    44.2695007798    R0
Au    5.8400010000    1.6858630000    44.2673860712    R0
Au    14.6000000000    1.6858630000    44.2723152825    R0
Au    10.2200000000    9.2722460000    44.3171781871    R0
Au    18.9800000000    9.2722460000    44.267001709300004    R0
Au    10.2200010000    4.2146570000    44.276029387600005    R0
Au    14.6000000000    11.8010400000    44.2683893917    R0
Au    4.3800000000    4.2146570000    44.270216499    R0
Au    13.1400000000    4.2146570000    44.3002267612    R0
Au    8.7600000000    11.8010400000    44.2825688303    R0
Au    17.5200000000    11.8010400000    44.2567080594    R0
Au    7.3000000000    4.2146570000    44.282761657600005    R0
Au    16.0599990000    4.2146570000    44.2747732278    R0
Au    11.6800000000    11.8010400000    44.2820899325    R0
Au    20.4400010000    11.8010400000    44.2676586782    R0
Au    11.6800000000    6.7434510000    44.3492238415    R0
Au    5.8400000000    6.7434510000    44.2888169924    R0
Au    14.6000000000    6.7434510000    44.2957732223    R0
Au    8.7600000000    6.7434510000    44.3340930485    R0
Au    17.5200000000    6.7434510000    44.2776464256    R0
Au    1.4600000000    0.8429310000    46.8974464452    R0
Au    10.2200000000    0.8429310000    46.8774361614    R0
Au    5.8400010000    8.4293140000    46.9080703563    R0
Au    14.6000000000    8.4293140000    46.9134932415    R0
Au    4.3800000000    0.8429310000    46.8953002704    R0
Au    13.1400010000    0.8429310000    46.888526399599996    R0
Au    8.7600000000    8.4293140000    46.9408242647    R0
Au    17.5200000000    8.4293140000    46.8940101921    R0
Au    7.3000010000    0.8429310000    46.8862676683    R0
Au    11.6800000000    8.4293140000    46.9470864396    R0
Au    2.9200000000    3.3717260000    46.8939857134    R0
Au    11.6800010000    3.3717260000    46.88969777    R0
Au    7.3000000000    10.9581090000    46.905254690999996    R0
Au    16.0599980000    10.9581090000    46.8864615019    R0
Au    5.8400000000    3.3717260000    46.8955028253    R0
Au    14.6000000000    3.3717260000    46.9050438572    R0
Au    10.2200000000    10.9581090000    46.919475905300004    R0
Au    18.9800000000    10.9581090000    46.885113177099996    R0
Au    8.7600000000    3.3717260000    46.883489681499995    R0
Au    13.1399990000    10.9581090000    46.9072808376    R0
Au    4.3800000000    5.9005200000    46.9027998361    R0
Au    13.1400000000    5.9005200000    46.9339460499    R0
Au    7.3000000000    5.9005200000    46.9225973724    R0
Au    16.0599990000    5.9005200000    46.907179882600005    R0
Au    10.2200000000    5.9005200000    46.9302613586    R0
Au    0.0000000000    0.0000000000    49.5196283154    R0
Au    8.7600000000    0.0000000000    49.5027568116    R0
Au    4.3800000000    7.5863820000    49.5251333677    R0
Au    13.1399990000    7.5863820000    49.558268467800005    R0
Au    2.9200000000    0.0000000000    49.5263623667    R0
Au    11.6800000000    0.0000000000    49.502848429699995    R0
Au    7.3000000000    7.5863820000    49.5510638297    R0
Au    16.0599990000    7.5863820000    49.5298492924    R0
Au    5.8400000000    0.0000000000    49.518747041400005    R0
Au    10.2200000000    7.5863820000    49.5636292748    R0
Au    1.4600000000    2.5287940000    49.521287752999996    R0
Au    10.2200000000    2.5287940000    49.4965752492    R0
Au    5.8400000000    10.1151760000    49.5212853417    R0
Au    14.6000000000    10.1151760000    49.524830723099996    R0
Au    4.3800000000    2.5287940000    49.5167629384    R0
Au    13.1400000000    2.5287940000    49.5125454947    R0
Au    8.7600000000    10.1151760000    49.5495991015    R0
Au    17.5200000000    10.1151760000    49.5084360023    R0
Au    7.3000000000    2.5287940000    49.505880424699996    R0
Au    11.6800000000    10.1151760000    49.5520023598    R0
Au    2.9200000000    5.0575880000    49.524059726800004    R0
Au    11.6800000000    5.0575880000    49.5352430918    R0
Au    5.8400000000    5.0575880000    49.5292178648    R0
Au    14.6000000000    5.0575880000    49.5376602561    R0
Au    8.7600000000    5.0575880000    49.5281413117    R0
Au    8.760002    1.685863   51.40430450010871 R1
Au   13.140000    9.272246   51.40430450010871 R1
Au    2.920000    1.685863   51.40430450010871 R1
Au   11.680000    1.685863   51.40430450010871 R1
Au    7.300000    9.272246   51.40430450010871 R1
Au   16.059999    9.272246   51.40430450010871 R1
Au    5.840001    1.685863   51.40430450010871 R1
Au   14.600000    1.685863   51.40430450010871 R1
Au   10.220000    9.272246   51.40430450010871 R1
Au   18.980000    9.272246   51.40430450010871 R1
Au   10.220001    4.214657   51.40430450010871 R1
Au   14.600000   11.801040   51.40430450010871 R1
Au    4.380000    4.214657   51.40430450010871 R1
Au   13.140000    4.214657   51.40430450010871 R1
Au    8.760000   11.801040   51.40430450010871 R1
Au   17.520000   11.801040   51.40430450010871 R1
Au    7.300000    4.214657   51.40430450010871 R1
Au   16.059999    4.214657   51.40430450010871 R1
Au   11.680000   11.801040   51.40430450010871 R1
Au   20.440001   11.801040   51.40430450010871 R1
Au   11.680000    6.743451   51.40430450010871 R1
Au    5.840000    6.743451   51.40430450010871 R1
Au   14.600000    6.743451   51.40430450010871 R1
Au    8.760000    6.743451   51.40430450010871 R1
Au   17.520000    6.743451   51.40430450010871 R1
Au    1.460000    0.842931   53.788474500108705 R1
Au   10.220000    0.842931   53.788474500108705 R1
Au    5.840001    8.429314   53.788474500108705 R1
Au   14.600000    8.429314   53.788474500108705 R1
Au    4.380000    0.842931   53.788474500108705 R1
Au   13.140001    0.842931   53.788474500108705 R1
Au    8.760000    8.429314   53.788474500108705 R1
Au   17.520000    8.429314   53.788474500108705 R1
Au    7.300001    0.842931   53.788474500108705 R1
Au   11.680000    8.429314   53.788474500108705 R1
Au    2.920000    3.371726   53.788474500108705 R1
Au   11.680001    3.371726   53.788474500108705 R1
Au    7.300000   10.958109   53.788474500108705 R1
Au   16.059998   10.958109   53.788474500108705 R1
Au    5.840000    3.371726   53.788474500108705 R1
Au   14.600000    3.371726   53.788474500108705 R1
Au   10.220000   10.958109   53.788474500108705 R1
Au   18.980000   10.958109   53.788474500108705 R1
Au    8.760000    3.371726   53.788474500108705 R1
Au   13.139999   10.958109   53.788474500108705 R1
Au    4.380000    5.900520   53.788474500108705 R1
Au   13.140000    5.900520   53.788474500108705 R1
Au    7.300000    5.900520   53.788474500108705 R1
Au   16.059999    5.900520   53.788474500108705 R1
Au   10.220000    5.900520   53.788474500108705 R1
Au    0.000000    0.000000   56.17264450010871 R1
Au    8.760000    0.000000   56.17264450010871 R1
Au    4.380000    7.586382   56.17264450010871 R1
Au   13.139999    7.586382   56.17264450010871 R1
Au    2.920000    0.000000   56.17264450010871 R1
Au   11.680000    0.000000   56.17264450010871 R1
Au    7.300000    7.586382   56.17264450010871 R1
Au   16.059999    7.586382   56.17264450010871 R1
Au    5.840000    0.000000   56.17264450010871 R1
Au   10.220000    7.586382   56.17264450010871 R1
Au    1.460000    2.528794   56.17264450010871 R1
Au   10.220000    2.528794   56.17264450010871 R1
Au    5.840000   10.115176   56.17264450010871 R1
Au   14.600000   10.115176   56.17264450010871 R1
Au    4.380000    2.528794   56.17264450010871 R1
Au   13.140000    2.528794   56.17264450010871 R1
Au    8.760000   10.115176   56.17264450010871 R1
Au   17.520000   10.115176   56.17264450010871 R1
Au    7.300000    2.528794   56.17264450010871 R1
Au   11.680000   10.115176   56.17264450010871 R1
Au    2.920000    5.057588   56.17264450010871 R1
Au   11.680000    5.057588   56.17264450010871 R1
Au    5.840000    5.057588   56.17264450010871 R1
Au   14.600000    5.057588   56.17264450010871 R1
Au    8.760000    5.057588   56.17264450010871 R1
Au    8.760002    1.685863   58.55681450010871 R2
Au   13.140000    9.272246   58.55681450010871 R2
Au    2.920000    1.685863   58.55681450010871 R2
Au   11.680000    1.685863   58.55681450010871 R2
Au    7.300000    9.272246   58.55681450010871 R2
Au   16.059999    9.272246   58.55681450010871 R2
Au    5.840001    1.685863   58.55681450010871 R2
Au   14.600000    1.685863   58.55681450010871 R2
Au   10.220000    9.272246   58.55681450010871 R2
Au   18.980000    9.272246   58.55681450010871 R2
Au   10.220001    4.214657   58.55681450010871 R2
Au   14.600000   11.801040   58.55681450010871 R2
Au    4.380000    4.214657   58.55681450010871 R2
Au   13.140000    4.214657   58.55681450010871 R2
Au    8.760000   11.801040   58.55681450010871 R2
Au   17.520000   11.801040   58.55681450010871 R2
Au    7.300000    4.214657   58.55681450010871 R2
Au   16.059999    4.214657   58.55681450010871 R2
Au   11.680000   11.801040   58.55681450010871 R2
Au   20.440001   11.801040   58.55681450010871 R2
Au   11.680000    6.743451   58.55681450010871 R2
Au    5.840000    6.743451   58.55681450010871 R2
Au   14.600000    6.743451   58.55681450010871 R2
Au    8.760000    6.743451   58.55681450010871 R2
Au   17.520000    6.743451   58.55681450010871 R2
Au    1.460000    0.842931   60.940984500108705 R2
Au   10.220000    0.842931   60.940984500108705 R2
Au    5.840001    8.429314   60.940984500108705 R2
Au   14.600000    8.429314   60.940984500108705 R2
Au    4.380000    0.842931   60.940984500108705 R2
Au   13.140001    0.842931   60.940984500108705 R2
Au    8.760000    8.429314   60.940984500108705 R2
Au   17.520000    8.429314   60.940984500108705 R2
Au    7.300001    0.842931   60.940984500108705 R2
Au   11.680000    8.429314   60.940984500108705 R2
Au    2.920000    3.371726   60.940984500108705 R2
Au   11.680001    3.371726   60.940984500108705 R2
Au    7.300000   10.958109   60.940984500108705 R2
Au   16.059998   10.958109   60.940984500108705 R2
Au    5.840000    3.371726   60.940984500108705 R2
Au   14.600000    3.371726   60.940984500108705 R2
Au   10.220000   10.958109   60.940984500108705 R2
Au   18.980000   10.958109   60.940984500108705 R2
Au    8.760000    3.371726   60.940984500108705 R2
Au   13.139999   10.958109   60.940984500108705 R2
Au    4.380000    5.900520   60.940984500108705 R2
Au   13.140000    5.900520   60.940984500108705 R2
Au    7.300000    5.900520   60.940984500108705 R2
Au   16.059999    5.900520   60.940984500108705 R2
Au   10.220000    5.900520   60.940984500108705 R2
Au    0.000000    0.000000   63.32515450010871 R2
Au    8.760000    0.000000   63.32515450010871 R2
Au    4.380000    7.586382   63.32515450010871 R2
Au   13.139999    7.586382   63.32515450010871 R2
Au    2.920000    0.000000   63.32515450010871 R2
Au   11.680000    0.000000   63.32515450010871 R2
Au    7.300000    7.586382   63.32515450010871 R2
Au   16.059999    7.586382   63.32515450010871 R2
Au    5.840000    0.000000   63.32515450010871 R2
Au   10.220000    7.586382   63.32515450010871 R2
Au    1.460000    2.528794   63.32515450010871 R2
Au   10.220000    2.528794   63.32515450010871 R2
Au    5.840000   10.115176   63.32515450010871 R2
Au   14.600000   10.115176   63.32515450010871 R2
Au    4.380000    2.528794   63.32515450010871 R2
Au   13.140000    2.528794   63.32515450010871 R2
Au    8.760000   10.115176   63.32515450010871 R2
Au   17.520000   10.115176   63.32515450010871 R2
Au    7.300000    2.528794   63.32515450010871 R2
Au   11.680000   10.115176   63.32515450010871 R2
Au    2.920000    5.057588   63.32515450010871 R2
Au   11.680000    5.057588   63.32515450010871 R2
Au    5.840000    5.057588   63.32515450010871 R2
Au   14.600000    5.057588   63.32515450010871 R2
Au    8.760000    5.057588   63.32515450010871 R2
Au    8.760002    1.685863   65.7093245001087 R3