    187
 i =       79, E =     -5094.0165480584
 Au         0.0000000000        0.0000000000       -0.4571843065
 Au         8.7600000000        0.0000000000       -0.4408508031
 Au         4.3800000000        7.5863820000       -0.4623394960
 Au        13.1400000000        7.5863820000       -0.4998249643
 Au         2.9200000000        0.0000000000       -0.4632486799
 Au        11.6800000000        0.0000000000       -0.4411481673
 Au         7.3000000000        7.5863820000       -0.4919217941
 Au        16.0599990000        7.5863820000       -0.4675403237
 Au         5.8400000000        0.0000000000       -0.4564371885
 Au        10.2200000000        7.5863820000       -0.5060057833
 Au         1.4600000000        2.5287940000       -0.4594447957
 Au        10.2200000000        2.5287940000       -0.4352523506
 Au         5.8400000000       10.1151760000       -0.4591195614
 Au        14.6000000000       10.1151760000       -0.4629123203
 Au         4.3800000000        2.5287940000       -0.4547416537
 Au        13.1400000000        2.5287940000       -0.4515493430
 Au         8.7600000000       10.1151760000       -0.4889117569
 Au        17.5200000000       10.1151760000       -0.4462897642
 Au         7.3000000000        2.5287940000       -0.4443813971
 Au        11.6800000000       10.1151760000       -0.4916691287
 Au         2.9200000000        5.0575880000       -0.4617096033
 Au        11.6800000000        5.0575880000       -0.4773737741
 Au         5.8400000000        5.0575880000       -0.4684943149
 Au        14.6000000000        5.0575880000       -0.4776073325
 Au         8.7600000000        5.0575880000       -0.4697955180
 Au         1.4600000000        0.8429310000        2.1646524396
 Au        10.2200000000        0.8429310000        2.1837668905
 Au         5.8400000000        8.4293140000        2.1534076389
 Au        14.6000000000        8.4293140000        2.1475698351
 Au         4.3800000000        0.8429310000        2.1668428015
 Au        13.1400000000        0.8429310000        2.1729462787
 Au         8.7600000000        8.4293140000        2.1186104730
 Au        17.5200000000        8.4293140000        2.1680298160
 Au         7.3000000000        0.8429310000        2.1754346868
 Au        11.6800000000        8.4293140000        2.1119480719
 Au         2.9200000000        3.3717260000        2.1677189669
 Au        11.6800000000        3.3717260000        2.1704239554
 Au         7.3000000000       10.9581080000        2.1564918875
 Au        16.0599990000       10.9581080000        2.1755633651
 Au         5.8400000000        3.3717260000        2.1655556492
 Au        14.6000000000        3.3717260000        2.1557213837
 Au        10.2200000000       10.9581080000        2.1422853867
 Au        18.9800000000       10.9581080000        2.1769778929
 Au         8.7600000000        3.3717260000        2.1770753198
 Au        13.1400000000       10.9581080000        2.1543233738
 Au         4.3800000000        5.9005200000        2.1590319086
 Au        13.1400000000        5.9005200000        2.1253393874
 Au         7.3000000000        5.9005200000        2.1370152544
 Au        16.0599990000        5.9005200000        2.1542910243
 Au        10.2200000000        5.9005200000        2.1280891097
 Au         8.7600000000        1.6858630000        4.8009125315
 Au        13.1400000000        9.2722450000        4.7613531383
 Au         2.9200000000        1.6858630000        4.7934594852
 Au        11.6800000000        1.6858630000        4.7986802824
 Au         7.3000000000        9.2722450000        4.7671462299
 Au        16.0599990000        9.2722450000        4.7923844251
 Au         5.8400000000        1.6858630000        4.7947975561
 Au        14.6000000000        1.6858630000        4.7895302125
 Au        10.2200000000        9.2722450000        4.7440673098
 Au        18.9800000000        9.2722450000        4.7952412285
 Au        10.2200000000        4.2146570000        4.7844780272
 Au        14.6000000000       11.8010400000        4.7941867924
 Au         4.3800000000        4.2146570000        4.7916128680
 Au        13.1400000000        4.2146570000        4.7594525378
 Au         8.7600000000       11.8010400000        4.7794541269
 Au        17.5200000000       11.8010400000        4.8055550992
 Au         7.3000000000        4.2146570000        4.7771634680
 Au        16.0599990000        4.2146570000        4.7867619648
 Au        11.6800000000       11.8010400000        4.7798029177
 Au        20.4400010000       11.8010400000        4.7949203085
 Au        11.6800000000        6.7434510000        4.7089087921
 Au         5.8400000000        6.7434510000        4.7728408616
 Au        14.6000000000        6.7434510000        4.7654625108
 Au         8.7600000000        6.7434510000        4.7240806706
 Au        17.5200000000        6.7434510000        4.7845941166
  C        10.4686994270        4.9029215454       19.6011695528
  C        11.5641389663        4.1918866406       19.0976042790
  C        11.3780538537        3.2507507980       18.0841275438
  C        10.1006818694        3.0009199329       17.5557809906
  C         9.1844362303        4.6351426777       19.1135782397
  C         9.0063770915        3.6919328764       18.1009391115
  C        10.1082083812        3.0034007191       10.0136285002
  H        12.2368529823        2.7078603848       17.6838834257
  H        10.6207231780        5.6896128744       20.3414180750
  H         8.3255997278        5.1741223805       19.5161730672
  H         8.0040150437        3.4938133491       17.7152949184
  H        12.5645542163        4.3849429758       19.4869359376
  C         9.0092775756        3.6919165151        9.4747903981
  C         9.1814619081        4.6437784207        8.4687550897
  C        10.4636616548        4.9218116252        7.9823764008
  C        11.5635828460        4.2123120710        8.4782806770
  C        11.3830165326        3.2621835357        9.4851285228
  H         8.3191082055        5.1810416838        8.0712613707
  H         8.0086351526        3.4860765377        9.8606264125
  H        12.5623614216        4.4131231645        8.0891005944
  H        12.2452365673        2.7207041773        9.8800483423
  H        10.6111871532        5.7165524792        7.2493731834
  C         9.9239785961        2.0898644974       16.3668669848
  C         9.9370660747        2.0876473971       11.2001739391
  C        10.0467663699        2.8756117163       12.5196668560
  C        10.0404201593        2.8774250870       15.0479997337
  H        10.6846259622        1.2936112792       16.3861757791
  H         8.9418630287        1.5932813583       16.4132144242
  H         8.9582938266        1.5847355555       11.1524512621
  H        10.7034408208        1.2969721940       11.1803663809
  C         9.9062519727        2.0251010451       13.7840071547
  H        11.0114636027        3.4004727139       15.0341854292
  H         9.2732425793        3.6696743170       15.0400146301
  H        10.6727174818        1.2311760090       13.7867339677
  H         8.9313759758        1.5078996370       13.7818094582
  H        11.0174330334        3.3991812851       12.5378499359
  H         9.2794728281        3.6677420934       12.5231908052
 Au         8.7600020000        1.6858630000       22.8025878478
 Au        13.1400000000        9.2722460000       22.8424142600
 Au         2.9200000000        1.6858630000       22.8116288506
 Au        11.6800000000        1.6858630000       22.8043787369
 Au         7.3000000000        9.2722460000       22.8368657562
 Au        16.0599990000        9.2722460000       22.8119707158
 Au         5.8400010000        1.6858630000       22.8098560072
 Au        14.6000000000        1.6858630000       22.8147852185
 Au        10.2200000000        9.2722460000       22.8596481231
 Au        18.9800000000        9.2722460000       22.8094716453
 Au        10.2200010000        4.2146570000       22.8184993236
 Au        14.6000000000       11.8010400000       22.8108593277
 Au         4.3800000000        4.2146570000       22.8126864350
 Au        13.1400000000        4.2146570000       22.8426966972
 Au         8.7600000000       11.8010400000       22.8250387663
 Au        17.5200000000       11.8010400000       22.7991779954
 Au         7.3000000000        4.2146570000       22.8252315936
 Au        16.0599990000        4.2146570000       22.8172431638
 Au        11.6800000000       11.8010400000       22.8245598685
 Au        20.4400010000       11.8010400000       22.8101286142
 Au        11.6800000000        6.7434510000       22.8916937775
 Au         5.8400000000        6.7434510000       22.8312869284
 Au        14.6000000000        6.7434510000       22.8382431583
 Au         8.7600000000        6.7434510000       22.8765629845
 Au        17.5200000000        6.7434510000       22.8201163616
 Au         1.4600000000        0.8429310000       25.4399163812
 Au        10.2200000000        0.8429310000       25.4199060974
 Au         5.8400010000        8.4293140000       25.4505402923
 Au        14.6000000000        8.4293140000       25.4559631775
 Au         4.3800000000        0.8429310000       25.4377702064
 Au        13.1400010000        0.8429310000       25.4309963356
 Au         8.7600000000        8.4293140000       25.4832942007
 Au        17.5200000000        8.4293140000       25.4364801281
 Au         7.3000010000        0.8429310000       25.4287376043
 Au        11.6800000000        8.4293140000       25.4895563756
 Au         2.9200000000        3.3717260000       25.4364556494
 Au        11.6800010000        3.3717260000       25.4321677060
 Au         7.3000000000       10.9581090000       25.4477246270
 Au        16.0599980000       10.9581090000       25.4289314379
 Au         5.8400000000        3.3717260000       25.4379727613
 Au        14.6000000000        3.3717260000       25.4475137932
 Au        10.2200000000       10.9581090000       25.4619458413
 Au        18.9800000000       10.9581090000       25.4275831131
 Au         8.7600000000        3.3717260000       25.4259596175
 Au        13.1399990000       10.9581090000       25.4497507736
 Au         4.3800000000        5.9005200000       25.4452697721
 Au        13.1400000000        5.9005200000       25.4764159859
 Au         7.3000000000        5.9005200000       25.4650673084
 Au        16.0599990000        5.9005200000       25.4496498186
 Au        10.2200000000        5.9005200000       25.4727312946
 Au         0.0000000000        0.0000000000       28.0620982514
 Au         8.7600000000        0.0000000000       28.0452267476
 Au         4.3800000000        7.5863820000       28.0676033037
 Au        13.1399990000        7.5863820000       28.1007384038
 Au         2.9200000000        0.0000000000       28.0688323027
 Au        11.6800000000        0.0000000000       28.0453183657
 Au         7.3000000000        7.5863820000       28.0935337657
 Au        16.0599990000        7.5863820000       28.0723192284
 Au         5.8400000000        0.0000000000       28.0612169774
 Au        10.2200000000        7.5863820000       28.1060992108
 Au         1.4600000000        2.5287940000       28.0637576890
 Au        10.2200000000        2.5287940000       28.0390451852
 Au         5.8400000000       10.1151760000       28.0637552777
 Au        14.6000000000       10.1151760000       28.0673006591
 Au         4.3800000000        2.5287940000       28.0592328744
 Au        13.1400000000        2.5287940000       28.0550154307
 Au         8.7600000000       10.1151760000       28.0920690375
 Au        17.5200000000       10.1151760000       28.0509059383
 Au         7.3000000000        2.5287940000       28.0483503607
 Au        11.6800000000       10.1151760000       28.0944722958
 Au         2.9200000000        5.0575880000       28.0665296628
 Au        11.6800000000        5.0575880000       28.0777130278
 Au         5.8400000000        5.0575880000       28.0716878008
 Au        14.6000000000        5.0575880000       28.0801301921
 Au         8.7600000000        5.0575880000       28.0706112477
