     128
 i =      151, E =     -3320.4106358172
 Au         0.0000000000        0.0000000000        0.0000000000
 Au         8.7600000000        0.0000000000        0.0000000000
 Au         4.3800000000        7.5863820000        0.0000000000
 Au        13.1400000000        7.5863820000        0.0000000000
 Au         2.9200000000        0.0000000000        0.0000000000
 Au         7.3000000000        7.5863820000        0.0000000000
 Au         5.8400000000        0.0000000000        0.0000000000
 Au        10.2200000000        7.5863820000        0.0000000000
 Au         1.4600000000        2.5287940000        0.0000000000
 Au        10.2200000000        2.5287940000        0.0000000000
 Au         4.3800000000        2.5287940000        0.0000000000
 Au         7.3000000000        2.5287940000        0.0000000000
 Au         2.9200000000        5.0575880000        0.0000000000
 Au        11.6800000000        5.0575880000        0.0000000000
 Au         5.8400000000        5.0575880000        0.0000000000
 Au         8.7600000000        5.0575880000        0.0000000000
 Au         1.4600000000        0.8429310000        2.3841700000
 Au        10.2200000000        0.8429310000        2.3841700000
 Au         5.8400000000        8.4293140000        2.3841700000
 Au        14.6000000000        8.4293140000        2.3841700000
 Au         4.3800000000        0.8429310000        2.3841700000
 Au         8.7600000000        8.4293140000        2.3841700000
 Au         7.3000000000        0.8429310000        2.3841700000
 Au        11.6800000000        8.4293140000        2.3841700000
 Au         2.9200000000        3.3717260000        2.3841700000
 Au        11.6800000000        3.3717260000        2.3841700000
 Au         5.8400000000        3.3717260000        2.3841700000
 Au         8.7600000000        3.3717260000        2.3841700000
 Au         4.3800000000        5.9005200000        2.3841700000
 Au        13.1400000000        5.9005200000        2.3841700000
 Au         7.3000000000        5.9005200000        2.3841700000
 Au        10.2200000000        5.9005200000        2.3841700000
 Au         8.7600000000        1.6858630000        4.7683400000
 Au        13.1400000000        9.2722450000        4.7683400000
 Au         2.9200000000        1.6858630000        4.7683400000
 Au        11.6800000000        1.6858630000        4.7683400000
 Au         7.3000000000        9.2722450000        4.7683400000
 Au        16.0599990000        9.2722450000        4.7683400000
 Au         5.8400000000        1.6858630000        4.7683400000
 Au        10.2200000000        9.2722450000        4.7683400000
 Au        10.2200000000        4.2146570000        4.7683400000
 Au         4.3800000000        4.2146570000        4.7683400000
 Au        13.1400000000        4.2146570000        4.7683400000
 Au         7.3000000000        4.2146570000        4.7683400000
 Au        11.6800000000        6.7434510000        4.7683400000
 Au         5.8400000000        6.7434510000        4.7683400000
 Au        14.6000000000        6.7434510000        4.7683400000
 Au         8.7600000000        6.7434510000        4.7683400000
  C         8.8506929249        6.9098517762       19.5288561911
  C        10.0915775840        6.6633183235       18.9118754395
  C        10.1356178778        6.1850641246       17.6065532319
  C         8.9568456877        5.9305339951       16.8742465354
  C         7.6674166449        6.5443455440       18.8586746940
  C         7.7273036628        6.0674954449       17.5532686557
  C         9.0171636184        5.6602548588       15.4224863991
  C        10.1117301709        5.0060964664       14.8203121638
  C        10.2410688850        4.9356101298       13.4363366718
  C         9.2831079295        5.5152047233       12.5788072273
  C         8.0203791540        6.1671392996       14.5643715711
  C         8.1496480874        6.0967221189       13.1815889719
  C         9.4962941991        5.6352768151       11.1213548735
  C         8.4176567104        5.6842231157       10.2120693407
  C         8.6078607909        6.0149045854        8.8740634423
  C         9.8989448635        6.3196184225        8.4033495072
  C        10.7935744423        5.8289839374       10.6023058889
  C        10.9991887905        6.1632005652        9.2684189674
  H        11.0133798105        6.9152411216       19.4362391727
  H        11.1054656105        6.0815177817       17.1189220440
  S         8.7729598485        7.9733999612       20.9386969959
  H         6.7044840419        6.6816169704       19.3509051845
  H         6.7978392243        5.8116070388       17.0431390540
  H         7.1682744707        6.7003005525       14.9870205957
  H        10.8749786172        4.5443019213       15.4480126166
  H        11.1028743283        4.4199103969       13.0106338825
  H         7.3958658458        6.5765799839       12.5566142632
  H        11.6529409343        5.7937131402       11.2726826818
  H         7.4064480041        5.4752980914       10.5634277146
  H         7.7563116893        6.0841876424        8.1968578248
  S        10.1421090785        7.1978148021        6.8874846191
  H        12.0051566673        6.3712696157        8.9040452006
 Au         0.0000000000        0.0000000000       23.0678022631
 Au         8.7600000000        0.0000000000       23.0678022631
 Au         4.3800000000        7.5863820000       23.0678022631
 Au        13.1400000000        7.5863820000       23.0678022631
 Au         2.9200000000        0.0000000000       23.0678022631
 Au         7.3000000000        7.5863820000       23.0678022631
 Au         5.8400000000        0.0000000000       23.0678022631
 Au        10.2200000000        7.5863820000       23.0678022631
 Au         1.4600000000        2.5287940000       23.0678022631
 Au        10.2200000000        2.5287940000       23.0678022631
 Au         4.3800000000        2.5287940000       23.0678022631
 Au         7.3000000000        2.5287940000       23.0678022631
 Au         2.9200000000        5.0575880000       23.0678022631
 Au        11.6800000000        5.0575880000       23.0678022631
 Au         5.8400000000        5.0575880000       23.0678022631
 Au         8.7600000000        5.0575880000       23.0678022631
 Au         1.4600000000        0.8429310000       25.4519722631
 Au        10.2200000000        0.8429310000       25.4519722631
 Au         5.8400000000        8.4293140000       25.4519722631
 Au        14.6000000000        8.4293140000       25.4519722631
 Au         4.3800000000        0.8429310000       25.4519722631
 Au         8.7600000000        8.4293140000       25.4519722631
 Au         7.3000000000        0.8429310000       25.4519722631
 Au        11.6800000000        8.4293140000       25.4519722631
 Au         2.9200000000        3.3717260000       25.4519722631
 Au        11.6800000000        3.3717260000       25.4519722631
 Au         5.8400000000        3.3717260000       25.4519722631
 Au         8.7600000000        3.3717260000       25.4519722631
 Au         4.3800000000        5.9005200000       25.4519722631
 Au        13.1400000000        5.9005200000       25.4519722631
 Au         7.3000000000        5.9005200000       25.4519722631
 Au        10.2200000000        5.9005200000       25.4519722631
 Au         8.7600000000        1.6858630000       27.8361422631
 Au        13.1400000000        9.2722450000       27.8361422631
 Au         2.9200000000        1.6858630000       27.8361422631
 Au        11.6800000000        1.6858630000       27.8361422631
 Au         7.3000000000        9.2722450000       27.8361422631
 Au        16.0599990000        9.2722450000       27.8361422631
 Au         5.8400000000        1.6858630000       27.8361422631
 Au        10.2200000000        9.2722450000       27.8361422631
 Au        10.2200000000        4.2146570000       27.8361422631
 Au         4.3800000000        4.2146570000       27.8361422631
 Au        13.1400000000        4.2146570000       27.8361422631
 Au         7.3000000000        4.2146570000       27.8361422631
 Au        11.6800000000        6.7434510000       27.8361422631
 Au         5.8400000000        6.7434510000       27.8361422631
 Au        14.6000000000        6.7434510000       27.8361422631
 Au         8.7600000000        6.7434510000       27.8361422631
 Au    0.000000    0.000000    51.6778423991    R1
Au    8.760000    0.000000    51.6778423991    R1
Au    4.380000    7.586382    51.6778423991    R1
Au    13.140000    7.586382    51.6778423991    R1
Au    2.920000    0.000000    51.6778423991    R1
Au    7.300000    7.586382    51.6778423991    R1
Au    5.840000    0.000000    51.6778423991    R1
Au    10.220000    7.586382    51.6778423991    R1
Au    1.460000    2.528794    51.6778423991    R1
Au    10.220000    2.528794    51.6778423991    R1
Au    4.380000    2.528794    51.6778423991    R1
Au    7.300000    2.528794    51.6778423991    R1
Au    2.920000    5.057588    51.6778423991    R1
Au    11.680000    5.057588    51.6778423991    R1
Au    5.840000    5.057588    51.6778423991    R1
Au    8.760000    5.057588    51.6778423991    R1
Au    1.460000    0.842931    54.0620123991    R1
Au    10.220000    0.842931    54.0620123991    R1
Au    5.840000    8.429314    54.0620123991    R1
Au    14.600000    8.429314    54.0620123991    R1
Au    4.380000    0.842931    54.0620123991    R1
Au    8.760000    8.429314    54.0620123991    R1
Au    7.300000    0.842931    54.0620123991    R1
Au    11.680000    8.429314    54.0620123991    R1
Au    2.920000    3.371726    54.0620123991    R1
Au    11.680000    3.371726    54.0620123991    R1
Au    5.840000    3.371726    54.0620123991    R1
Au    8.760000    3.371726    54.0620123991    R1
Au    4.380000    5.900520    54.0620123991    R1
Au    13.140000    5.900520    54.0620123991    R1
Au    7.300000    5.900520    54.0620123991    R1
Au    10.220000    5.900520    54.0620123991    R1
Au    8.760000    1.685863    56.4461823991    R1
Au    13.140000    9.272245    56.4461823991    R1
Au    2.920000    1.685863    56.4461823991    R1
Au    11.680000    1.685863    56.4461823991    R1
Au    7.300000    9.272245    56.4461823991    R1
Au    16.059999    9.272245    56.4461823991    R1
Au    5.840000    1.685863    56.4461823991    R1
Au    10.220000    9.272245    56.4461823991    R1
Au    10.220000    4.214657    56.4461823991    R1
Au    4.380000    4.214657    56.4461823991    R1
Au    13.140000    4.214657    56.4461823991    R1
Au    7.300000    4.214657    56.4461823991    R1
Au    11.680000    6.743451    56.4461823991    R1
Au    5.840000    6.743451    56.4461823991    R1
Au    14.600000    6.743451    56.4461823991    R1
Au    8.760000    6.743451    56.4461823991    R1
Au    0.000000    0.000000    58.8303513991    R2
Au    8.760000    0.000000    58.8303513991    R2
Au    4.380000    7.586382    58.8303513991    R2
Au    13.140000    7.586382    58.8303513991    R2
Au    2.920000    0.000000    58.8303513991    R2
Au    7.300000    7.586382    58.8303513991    R2
Au    5.840000    0.000000    58.8303513991    R2
Au    10.220000    7.586382    58.8303513991    R2
Au    1.460000    2.528794    58.8303513991    R2
Au    10.220000    2.528794    58.8303513991    R2
Au    4.380000    2.528794    58.8303513991    R2
Au    7.300000    2.528794    58.8303513991    R2
Au    2.920000    5.057588    58.8303513991    R2
Au    11.680000    5.057588    58.8303513991    R2
Au    5.840000    5.057588    58.8303513991    R2
Au    8.760000    5.057588    58.8303513991    R2
Au    1.460000    0.842931    61.214522399100005    R2
Au    10.220000    0.842931    61.214522399100005    R2
Au    5.840000    8.429314    61.214522399100005    R2
Au    14.600000    8.429314    61.214522399100005    R2
Au    4.380000    0.842931    61.214522399100005    R2
Au    8.760000    8.429314    61.214522399100005    R2
Au    7.300000    0.842931    61.214522399100005    R2
Au    11.680000    8.429314    61.214522399100005    R2
Au    2.920000    3.371726    61.214522399100005    R2
Au    11.680000    3.371726    61.214522399100005    R2
Au    5.840000    3.371726    61.214522399100005    R2
Au    8.760000    3.371726    61.214522399100005    R2
Au    4.380000    5.900520    61.214522399100005    R2
Au    13.140000    5.900520    61.214522399100005    R2
Au    7.300000    5.900520    61.214522399100005    R2
Au    10.220000    5.900520    61.214522399100005    R2
Au    8.760000    1.685863    63.5986923991    R2
Au    13.140000    9.272245    63.5986923991    R2
Au    2.920000    1.685863    63.5986923991    R2
Au    11.680000    1.685863    63.5986923991    R2
Au    7.300000    9.272245    63.5986923991    R2
Au    16.059999    9.272245    63.5986923991    R2
Au    5.840000    1.685863    63.5986923991    R2
Au    10.220000    9.272245    63.5986923991    R2
Au    10.220000    4.214657    63.5986923991    R2
Au    4.380000    4.214657    63.5986923991    R2
Au    13.140000    4.214657    63.5986923991    R2
Au    7.300000    4.214657    63.5986923991    R2
Au    11.680000    6.743451    63.5986923991    R2
Au    5.840000    6.743451    63.5986923991    R2
Au    14.600000    6.743451    63.5986923991    R2
Au    8.760000    6.743451    63.5986923991    R2
Au    0.000000    0.000000    65.9828613991    R3
Au    8.760000    0.000000    65.9828613991    R3
Au    4.380000    7.586382    65.9828613991    R3
Au    13.140000    7.586382    65.9828613991    R3
Au    2.920000    0.000000    65.9828613991    R3
Au    7.300000    7.586382    65.9828613991    R3
Au    5.840000    0.000000    65.9828613991    R3
Au    10.220000    7.586382    65.9828613991    R3
Au    1.460000    2.528794    65.9828613991    R3
Au    10.220000    2.528794    65.9828613991    R3
Au    4.380000    2.528794    65.9828613991    R3
Au    7.300000    2.528794    65.9828613991    R3
Au    2.920000    5.057588    65.9828613991    R3
Au    11.680000    5.057588    65.9828613991    R3
Au    5.840000    5.057588    65.9828613991    R3
Au    8.760000    5.057588    65.9828613991    R3
Au    1.460000    0.842931    68.3670323991    R3
Au    10.220000    0.842931    68.3670323991    R3
Au    5.840000    8.429314    68.3670323991    R3
Au    14.600000    8.429314    68.3670323991    R3
Au    4.380000    0.842931    68.3670323991    R3
Au    8.760000    8.429314    68.3670323991    R3
Au    7.300000    0.842931    68.3670323991    R3
Au    11.680000    8.429314    68.3670323991    R3
Au    2.920000    3.371726    68.3670323991    R3
Au    11.680000    3.371726    68.3670323991    R3
Au    5.840000    3.371726    68.3670323991    R3
Au    8.760000    3.371726    68.3670323991    R3
Au    4.380000    5.900520    68.3670323991    R3
Au    13.140000    5.900520    68.3670323991    R3
Au    7.300000    5.900520    68.3670323991    R3
Au    10.220000    5.900520    68.3670323991    R3
Au    8.760000    1.685863    70.75120239910001    R3
Au    13.140000    9.272245    70.75120239910001    R3
Au    2.920000    1.685863    70.75120239910001    R3
Au    11.680000    1.685863    70.75120239910001    R3
Au    7.300000    9.272245    70.75120239910001    R3
Au    16.059999    9.272245    70.75120239910001    R3
Au    5.840000    1.685863    70.75120239910001    R3
Au    10.220000    9.272245    70.75120239910001    R3
Au    10.220000    4.214657    70.75120239910001    R3
Au    4.380000    4.214657    70.75120239910001    R3
Au    13.140000    4.214657    70.75120239910001    R3
Au    7.300000    4.214657    70.75120239910001    R3
Au    11.680000    6.743451    70.75120239910001    R3
Au    5.840000    6.743451    70.75120239910001    R3
Au    14.600000    6.743451    70.75120239910001    R3
Au    8.760000    6.743451    70.75120239910001    R3
