    136
 i =      333, E =     -3325.1962492678
 Au         0.0000000000        0.0000000000        0.0000000000
 Au         8.7600000000        0.0000000000        0.0000000000
 Au         4.3800000000        7.5863820000        0.0000000000
 Au        13.1400000000        7.5863820000        0.0000000000
 Au         2.9200000000        0.0000000000        0.0000000000
 Au         7.3000000000        7.5863820000        0.0000000000
 Au         5.8400000000        0.0000000000        0.0000000000
 Au        10.2200000000        7.5863820000        0.0000000000
 Au         1.4600000000        2.5287940000        0.0000000000
 Au        10.2200000000        2.5287940000        0.0000000000
 Au         4.3800000000        2.5287940000        0.0000000000
 Au         7.3000000000        2.5287940000        0.0000000000
 Au         2.9200000000        5.0575880000        0.0000000000
 Au        11.6800000000        5.0575880000        0.0000000000
 Au         5.8400000000        5.0575880000        0.0000000000
 Au         8.7600000000        5.0575880000        0.0000000000
 Au         1.4600000000        0.8429310000        2.3841700000
 Au        10.2200000000        0.8429310000        2.3841700000
 Au         5.8400000000        8.4293140000        2.3841700000
 Au        14.6000000000        8.4293140000        2.3841700000
 Au         4.3800000000        0.8429310000        2.3841700000
 Au         8.7600000000        8.4293140000        2.3841700000
 Au         7.3000000000        0.8429310000        2.3841700000
 Au        11.6800000000        8.4293140000        2.3841700000
 Au         2.9200000000        3.3717260000        2.3841700000
 Au        11.6800000000        3.3717260000        2.3841700000
 Au         5.8400000000        3.3717260000        2.3841700000
 Au         8.7600000000        3.3717260000        2.3841700000
 Au         4.3800000000        5.9005200000        2.3841700000
 Au        13.1400000000        5.9005200000        2.3841700000
 Au         7.3000000000        5.9005200000        2.3841700000
 Au        10.2200000000        5.9005200000        2.3841700000
 Au         8.7600000000        1.6858630000        4.7683400000
 Au        13.1400000000        9.2722450000        4.7683400000
 Au         2.9200000000        1.6858630000        4.7683400000
 Au        11.6800000000        1.6858630000        4.7683400000
 Au         7.3000000000        9.2722450000        4.7683400000
 Au        16.0599990000        9.2722450000        4.7683400000
 Au         5.8400000000        1.6858630000        4.7683400000
 Au        10.2200000000        9.2722450000        4.7683400000
 Au        10.2200000000        4.2146570000        4.7683400000
 Au         4.3800000000        4.2146570000        4.7683400000
 Au        13.1400000000        4.2146570000        4.7683400000
 Au         7.3000000000        4.2146570000        4.7683400000
 Au        11.6800000000        6.7434510000        4.7683400000
 Au         5.8400000000        6.7434510000        4.7683400000
 Au        14.6000000000        6.7434510000        4.7683400000
 Au         8.7600000000        6.7434510000        4.7683400000
  C        11.2352840062        5.4736116285       22.2148526788
  C        11.9940171346        6.4799818303       21.5920143071
  C        12.3369939299        6.3534224915       20.2472509415
  C        11.9489938900        5.2333944346       19.4926621519
  C        10.8936713321        4.3155446545       21.4943757140
  C        11.2476196326        4.2090152369       20.1508563139
  C         9.6165353828        6.4194999266       10.9362919363
  H        12.9076787805        7.1520824285       19.7682970235
  S        10.4695239996        5.7853991233       23.7826112971
  H        10.3279892603        3.5223763391       21.9831233853
  H        10.9590467395        3.3136275944       19.5958975871
  H        12.2818809131        7.3669342389       22.1564383838
  C        10.3530994592        7.3509122879       10.1851762313
  C        10.7727723943        7.0692092451        8.8859334653
  C        10.4632063720        5.8255964337        8.3084498903
  C         9.6531344262        4.9168437375        9.0125783171
  C         9.2442941051        5.2179512356       10.3100244898
  H        11.3720404502        7.7896925891        8.3287894716
  H        10.6253570072        8.3084407291       10.6346838596
  H         9.3828818155        3.9656679856        8.5536860463
  H         8.6410361132        4.4910100079       10.8585556571
  S        11.3366343005        5.2692108228        6.8698609918
  C        12.2184608827        5.1602336378       18.0093870186
  C         9.3211638900        6.6520937645       12.3982725114
  C        10.4413970335        6.0828416443       13.2965190007
  C        11.0700290535        5.7557006737       17.1654230405
  H        13.1522128938        5.6956292907       17.7742041417
  H        12.3725861843        4.1102617516       17.7126529395
  H         8.3644980977        6.1763164689       12.6674549721
  H         9.2080864815        7.7302428535       12.5941192749
  C        11.3179882584        5.6571729655       15.6562736243
  H        10.9224287099        6.8099402256       17.4530332451
  H        10.1314361791        5.2369364777       17.4220344081
  C        10.1851115898        6.2384543043       14.7993511202
  H         9.2350109331        5.7420411950       15.0623125491
  H        10.0483426683        7.3059527812       15.0438984530
  H        12.2619585744        6.1715516034       15.4055856335
  H        11.4699646457        4.5986218205       15.3820507776
  H        11.3925519605        6.5729486806       13.0299384593
  H        10.5770532350        5.0150479303       13.0567693671
 Au         8.7600020000        1.6858630000       25.8739310040
 Au        13.1400000000        9.2722460000       25.8739310040
 Au         2.9200000000        1.6858630000       25.8739310040
 Au        11.6800000000        1.6858630000       25.8739310040
 Au         7.3000000000        9.2722460000       25.8739310040
 Au        16.0599990000        9.2722460000       25.8739310040
 Au         5.8400010000        1.6858630000       25.8739310040
 Au        10.2200000000        9.2722460000       25.8739310040
 Au        10.2200010000        4.2146570000       25.8739310040
 Au         4.3800000000        4.2146570000       25.8739310040
 Au        13.1400000000        4.2146570000       25.8739310040
 Au         7.3000000000        4.2146570000       25.8739310040
 Au        11.6800000000        6.7434510000       25.8739310040
 Au         5.8400000000        6.7434510000       25.8739310040
 Au        14.6000000000        6.7434510000       25.8739310040
 Au         8.7600000000        6.7434510000       25.8739310040
 Au         1.4600000000        0.8429310000       28.2581010040
 Au        10.2200000000        0.8429310000       28.2581010040
 Au         5.8400010000        8.4293140000       28.2581010040
 Au        14.6000000000        8.4293140000       28.2581010040
 Au         4.3800000000        0.8429310000       28.2581010040
 Au         8.7600000000        8.4293140000       28.2581010040
 Au         7.3000010000        0.8429310000       28.2581010040
 Au        11.6800000000        8.4293140000       28.2581010040
 Au         2.9200000000        3.3717260000       28.2581010040
 Au        11.6800010000        3.3717260000       28.2581010040
 Au         5.8400000000        3.3717260000       28.2581010040
 Au         8.7600000000        3.3717260000       28.2581010040
 Au         4.3800000000        5.9005200000       28.2581010040
 Au        13.1400000000        5.9005200000       28.2581010040
 Au         7.3000000000        5.9005200000       28.2581010040
 Au        10.2200000000        5.9005200000       28.2581010040
 Au         0.0000000000        0.0000000000       30.6422710040
 Au         8.7600000000        0.0000000000       30.6422710040
 Au         4.3800000000        7.5863820000       30.6422710040
 Au        13.1399990000        7.5863820000       30.6422710040
 Au         2.9200000000        0.0000000000       30.6422710040
 Au         7.3000000000        7.5863820000       30.6422710040
 Au         5.8400000000        0.0000000000       30.6422710040
 Au        10.2200000000        7.5863820000       30.6422710040
 Au         1.4600000000        2.5287940000       30.6422710040
 Au        10.2200000000        2.5287940000       30.6422710040
 Au         4.3800000000        2.5287940000       30.6422710040
 Au         7.3000000000        2.5287940000       30.6422710040
 Au         2.9200000000        5.0575880000       30.6422710040
 Au        11.6800000000        5.0575880000       30.6422710040
 Au         5.8400000000        5.0575880000       30.6422710040
 Au         8.7600000000        5.0575880000       30.6422710040
