40
	Energy:      30.2541277
C          0.07896       11.50104       -5.41362
C          0.88446       12.38474       -6.13928
C          1.44597       11.98487       -7.35580
C          1.20682       10.69378       -7.85836
C         -0.16536       10.21559       -5.90729
C          0.39356        9.81321       -7.12371
C          6.35895        9.48210      -14.25353
H          2.06223       12.68388       -7.90691
S         -0.64074       12.01512       -3.85789
H         -0.78950        9.52738       -5.35120
H          0.19078        8.81448       -7.49029
H          1.07492       13.38213       -5.76363
C          7.73803        9.23554      -14.37905
C          8.25177        8.67711      -15.55394
C          7.39637        8.36248      -16.61499
C          6.02488        8.60883      -16.50072
C          5.50804        9.16585      -15.32802
H          9.31488        8.48983      -15.63778
H          8.41616        9.47497      -13.57019
H          5.35723        8.36916      -17.31874
H          4.44254        9.34762      -15.26011
S          8.05530        7.64722      -18.11733
C          1.80027       10.26144       -9.17585
C          5.79116       10.08247      -12.98918
C          6.02746        9.16723      -11.77469
C          3.33559       10.24297       -9.13643
H          1.44725       10.95359       -9.97105
H          1.44681        9.23828       -9.43294
H          4.70214       10.23775      -13.12564
H          6.25936       11.07481      -12.81118
C          3.89934        9.78329      -10.48613
H          3.72518       11.25822       -8.90621
H          3.66893        9.54261       -8.33891
C          5.43507        9.71899      -10.46556
H          5.74072        9.03125       -9.64659
H          5.86140       10.72363      -10.25186
H          3.55380       10.49212      -11.26640
H          3.50211        8.77012      -10.71679
H          5.59474        8.16161      -11.97160
H          7.12184        9.04703      -11.62483
