      40
 i =      351, E =      -134.6283629926
C   8.121081939422117   10.18170000589002   0.7264378971805527
C   8.71205669692146   11.302984810590294   0.06703639253910332
C   9.047763874853498   11.244561395503842   -1.2747385768961301
C   8.820583091497758   10.078017526439321   -2.0360580636957404
C   7.891272809681249   9.007372615535328   -0.054338821702623274
C   8.233194141695146   8.965963058281977   -1.39486310101262
C   6.629503013987582   10.920071928850021   -10.651226078408945
H   9.50597442930908   12.111877672729051   -1.75530852292132
S   7.712919650391504   10.240018111330217   2.3808286777896126
H   7.444802555209417   8.142678210666753   0.436829377773718
H   8.055750947338394   8.054150434053305   -1.969606239842098
H   8.896958857456433   12.20393372820583   0.6521856502025427
C   7.1397990367295066   11.970675153026217   -11.442608088481062
C   7.469387313456027   11.773461499111253   -12.773090495137328
C   7.308728930780061   10.494228501243368   -13.388049513623981
C   6.791947164250352   9.436684501254668   -12.577663418452781
C   6.464046733239844   9.65218482043137   -11.250766085526978
H   7.855539218554988   12.591349341563468   -13.38140663961585
H   7.268993810962765   12.958488943380484   -10.994959630646699
H   6.6593622311469876   8.456492967347515   -13.035605226347759
H   6.064575263832187   8.829514109108008   -10.65331982304823
S   7.712919650215356   10.240018110800758   -15.024762326175564
C   9.154960547286251   10.032423140790439   -3.499544450377805
C   6.315357280732947   11.125286042273094   -9.196574520374309
C   7.472711641388521   10.674192235660078   -8.277816853403607
C   7.976042130162596   10.47929582391977   -4.393370065178782
H   10.022060416936155   10.680051913944668   -3.7044410845016995
H   9.444349172826024   9.007346838963286   -3.7809552349050284
H   5.409144002181083   10.557963125710998   -8.929246571947958
H   6.097958929981411   12.18784286065248   -9.007189551720348
C   8.305377860476543   10.386854229670556   -5.885480972693351
H   7.696661049190189   11.513066249253363   -4.1321338605631155
H   7.095007753634597   9.856644298322536   -4.167302917712759
C   7.152748713379401   10.834679651765478   -6.789084338068818
H   6.247351804866625   10.253138093563987   -6.54419357903405
H   6.905497603370395   11.888360460149725   -6.5747326325216005
H   9.19921810118413   10.995924709902482   -6.1034645607525455
H   8.5794279152233   9.346982608181095   -6.133066199515406
H   8.377627261761969   11.25055426629286   -8.530980868230188
H   7.711481887590349   9.61975829208438   -8.492792641094951
