13
	Energy:       9.5006488
C         -2.39724        0.02772        0.00398
C         -1.56846        1.25758       -0.32015
C         -0.05397        1.04340       -0.17625
H          0.21099        0.78967        0.87262
H          0.48841        1.97040       -0.45944
H          0.28628        0.22937       -0.85118
N         -2.00465        2.36942        0.52606
H         -1.77009        1.52175       -1.38180
H         -1.50797        3.24569        0.24350
H         -1.78392        2.16604        1.52884
O         -3.61003        0.09301       -0.12150
O         -1.85549       -1.14029        0.42121
H         -0.90879       -1.28265        0.54694
