13
	Energy:       9.5006488
C   -0.08313672768702951   -2.3688275685781353   -0.35956653244384756
C   0.5233367476028375   -1.7548050917210798   0.8892963449707056
C   0.39120801160235363   -0.22574722565167515   0.9584648481653902
H   -0.6775212732432945   0.0775186151024459   0.9820982344019277
H   0.8833831433164862   0.1558934051322161   1.8781472439722522
H   0.8900655585775973   0.24441463837361002   0.0843742477456671
N   -0.08313672768702945   -2.3688275685781353   2.071534725114134
H   1.609007701147157   -1.9973388035977941   0.8832014673287584
H   0.3960560609400968   -2.0238700118937687   2.935108025022202
H   -1.0977579898179823   -2.1175080204477723   2.1266261478525412
O   0.010180351509718369   -3.5757199649991493   -0.5194735829179592
O   -0.7187741909947548   -1.6414106464226645   -1.3075385426327464
H   -0.8381066949530868   -0.6842026969115074   -1.2647835734282105
