     349
 i =        7, E =     -9990.3151063706
 Au         0.0000000000        0.0000000000        0.0000000000
 Au         7.3000000000       12.6439700000        0.0000000000
 Au        14.6000000000        0.0000000000        0.0000000000
 Au        21.9000000000       12.6439700000        0.0000000000
 Au         8.7600000000        0.0000000000        0.0000000000
 Au        16.0599990000       12.6439700000        0.0000000000
 Au         4.3800000000        7.5863820000        0.0000000000
 Au        18.9800000000        7.5863820000        0.0000000000
 Au        13.1399990000        7.5863820000        0.0000000000
 Au         2.9200000000        0.0000000000        0.0000000000
 Au        10.2199990000       12.6439700000        0.0000000000
 Au        17.5200000000        0.0000000000        0.0000000000
 Au        24.8200000000       12.6439700000        0.0000000000
 Au        11.6800000000        0.0000000000        0.0000000000
 Au        18.9800000000       12.6439700000        0.0000000000
 Au         7.3000000000        7.5863820000        0.0000000000
 Au        21.9000020000        7.5863820000        0.0000000000
 Au        16.0599990000        7.5863820000        0.0000000000
 Au         5.8400000000        0.0000000000        0.0000000000
 Au        13.1399990000       12.6439700000        0.0000000000
 Au        10.2200000000        7.5863820000        0.0000000000
 Au         1.4600000000        2.5287940000        0.0000000000
 Au         8.7599990000       15.1727650000        0.0000000000
 Au        16.0599990000        2.5287940000        0.0000000000
 Au        23.3599990000       15.1727650000        0.0000000000
 Au        10.2200000000        2.5287940000        0.0000000000
 Au        17.5200000000       15.1727650000        0.0000000000
 Au         5.8400000000       10.1151760000        0.0000000000
 Au        20.4400010000       10.1151760000        0.0000000000
 Au        14.6000000000       10.1151760000        0.0000000000
 Au         4.3800000000        2.5287940000        0.0000000000
 Au        11.6800000000       15.1727650000        0.0000000000
 Au        18.9800000000        2.5287940000        0.0000000000
 Au        26.2799990000       15.1727650000        0.0000000000
 Au        13.1400000000        2.5287940000        0.0000000000
 Au        20.4400010000       15.1727650000        0.0000000000
 Au         8.7600000000       10.1151760000        0.0000000000
 Au        23.3600010000       10.1151760000        0.0000000000
 Au        17.5200000000       10.1151760000        0.0000000000
 Au         7.3000000000        2.5287940000        0.0000000000
 Au        14.6000000000       15.1727650000        0.0000000000
 Au        11.6800000000       10.1151760000        0.0000000000
 Au         2.9200000000        5.0575880000        0.0000000000
 Au        17.5200000000        5.0575880000        0.0000000000
 Au        11.6800000000        5.0575880000        0.0000000000
 Au         5.8400000000        5.0575880000        0.0000000000
 Au        20.4400010000        5.0575880000        0.0000000000
 Au        14.6000000000        5.0575880000        0.0000000000
 Au         8.7600000000        5.0575880000        0.0000000000
 Au         1.4600000000        0.8429310000        2.3841700000
 Au         8.7600000000       13.4869010000        2.3841700000
 Au        16.0600010000        0.8429310000        2.3841700000
 Au        23.3600010000       13.4869010000        2.3841700000
 Au        10.2200000000        0.8429310000        2.3841700000
 Au        17.5200000000       13.4869010000        2.3841700000
 Au         5.8400000000        8.4293140000        2.3841700000
 Au        20.4400010000        8.4293140000        2.3841700000
 Au        14.6000000000        8.4293140000        2.3841700000
 Au         4.3800000000        0.8429310000        2.3841700000
 Au        11.6800000000       13.4869010000        2.3841700000
 Au        18.9800000000        0.8429310000        2.3841700000
 Au        26.2799990000       13.4869010000        2.3841700000
 Au        13.1400010000        0.8429310000        2.3841700000
 Au        20.4400010000       13.4869010000        2.3841700000
 Au         8.7600000000        8.4293140000        2.3841700000
 Au        23.3600010000        8.4293140000        2.3841700000
 Au        17.5200000000        8.4293140000        2.3841700000
 Au         7.3000000000        0.8429310000        2.3841700000
 Au        14.6000000000       13.4869010000        2.3841700000
 Au        11.6800000000        8.4293140000        2.3841700000
 Au         2.9200000000        3.3717260000        2.3841700000
 Au        10.2199990000       16.0156970000        2.3841700000
 Au        17.5200000000        3.3717260000        2.3841700000
 Au        24.8200000000       16.0156970000        2.3841700000
 Au        11.6800000000        3.3717260000        2.3841700000
 Au        18.9800000000       16.0156970000        2.3841700000
 Au         7.3000000000       10.9581090000        2.3841700000
 Au        21.9000020000       10.9581090000        2.3841700000
 Au        16.0599990000       10.9581090000        2.3841700000
 Au         5.8400000000        3.3717260000        2.3841700000
 Au        13.1399990000       16.0156970000        2.3841700000
 Au        20.4400010000        3.3717260000        2.3841700000
 Au        27.7400000000       16.0156970000        2.3841700000
 Au        14.6000000000        3.3717260000        2.3841700000
 Au        21.9000000000       16.0156970000        2.3841700000
 Au        10.2200000000       10.9581090000        2.3841700000
 Au        24.8200000000       10.9581090000        2.3841700000
 Au        18.9800000000       10.9581090000        2.3841700000
 Au         8.7600000000        3.3717260000        2.3841700000
 Au        16.0599990000       16.0156970000        2.3841700000
 Au        13.1400000000       10.9581090000        2.3841700000
 Au         4.3800000000        5.9005200000        2.3841700000
 Au        18.9800000000        5.9005200000        2.3841700000
 Au        13.1400000000        5.9005200000        2.3841700000
 Au         7.3000000000        5.9005200000        2.3841700000
 Au        21.9000020000        5.9005200000        2.3841700000
 Au        16.0599990000        5.9005200000        2.3841700000
 Au        10.2200000000        5.9005200000        2.3841700000
 Au         8.7600010000        1.6858630000        4.7683400000
 Au        16.0600010000       14.3298340000        4.7683400000
 Au        13.1399990000        9.2722460000        4.7683400000
 Au         2.9200000000        1.6858630000        4.7683400000
 Au        10.2199990000       14.3298340000        4.7683400000
 Au        17.5200000000        1.6858630000        4.7683400000
 Au        24.8200000000       14.3298340000        4.7683400000
 Au        11.6800000000        1.6858630000        4.7683400000
 Au        18.9800000000       14.3298340000        4.7683400000
 Au         7.3000000000        9.2722460000        4.7683400000
 Au        21.9000000000        9.2722460000        4.7683400000
 Au        16.0599990000        9.2722460000        4.7683400000
 Au         5.8400000000        1.6858630000        4.7683400000
 Au        13.1399990000       14.3298340000        4.7683400000
 Au        20.4400010000        1.6858630000        4.7683400000
 Au        27.7400000000       14.3298340000        4.7683400000
 Au        14.6000000000        1.6858630000        4.7683400000
 Au        21.9000000000       14.3298340000        4.7683400000
 Au        10.2199990000        9.2722460000        4.7683400000
 Au        24.8200000000        9.2722460000        4.7683400000
 Au        18.9800000000        9.2722460000        4.7683400000
 Au        10.2200010000        4.2146570000        4.7683400000
 Au        17.5200000000       16.8586270000        4.7683400000
 Au        14.6000000000       11.8010400000        4.7683400000
 Au         4.3800000000        4.2146570000        4.7683400000
 Au        11.6800000000       16.8586270000        4.7683400000
 Au        18.9800000000        4.2146570000        4.7683400000
 Au        26.2799990000       16.8586270000        4.7683400000
 Au        13.1400000000        4.2146570000        4.7683400000
 Au        20.4400010000       16.8586270000        4.7683400000
 Au         8.7600000000       11.8010400000        4.7683400000
 Au        23.3600010000       11.8010400000        4.7683400000
 Au        17.5200000000       11.8010400000        4.7683400000
 Au         7.3000000000        4.2146570000        4.7683400000
 Au        14.6000000000       16.8586270000        4.7683400000
 Au        21.9000020000        4.2146570000        4.7683400000
 Au        29.2000010000       16.8586270000        4.7683400000
 Au        16.0599990000        4.2146570000        4.7683400000
 Au        23.3599990000       16.8586270000        4.7683400000
 Au        11.6800000000       11.8010400000        4.7683400000
 Au        26.2800010000       11.8010400000        4.7683400000
 Au        20.4400010000       11.8010400000        4.7683400000
 Au        11.6800000000        6.7434510000        4.7683400000
 Au         5.8400000000        6.7434510000        4.7683400000
 Au        20.4400010000        6.7434510000        4.7683400000
 Au        14.6000000000        6.7434510000        4.7683400000
 Au         8.7600000000        6.7434510000        4.7683400000
 Au        23.3600010000        6.7434510000        4.7683400000
 Au        17.5200000000        6.7434510000        4.7683400000
  C         7.3156528789        6.2019178090       19.5466820621
  C         8.6395111573        6.6448228015       19.3880566572
  C         9.2941269828        6.4640252202       18.1723701688
  C         8.6595895016        5.8414834202       17.0770347619
  C         6.6834117167        5.5359623210       18.4779751355
  C         7.3461532089        5.3670182815       17.2692395136
  C         9.3228988943        5.7072940794       15.7612125184
  C        10.2426010712        6.6680750104       15.2993468296
  C        10.8453747378        6.5549032021       14.0463233900
  C        10.5489972206        5.4758998054       13.2031982743
  C         9.0392595427        4.6204533260       14.9108286657
  C         9.6409785795        4.5092202210       13.6604186612
  C        11.1869250398        5.2968784776       11.8284904960
  C        10.3585197229        5.7945264807       10.6413515999
  C        10.8358505393        5.5530845522        9.3418665249
  C        10.1200112343        5.9635196954        8.2243053494
  C         8.8917281187        6.6316301421        8.3718945447
  C         9.1303349703        6.4505655618       10.7887726679
  C         8.4032745960        6.8667435646        9.6737851003
  N        12.5741376637        5.7760664105       11.7641809370
  H        11.2700488314        4.2075471321       11.6762826450
  C        13.6741424660        4.9553261191       12.0365641634
  C        14.8679179048        5.7110163136       11.8755465905
  C        14.4665220511        7.0504306144       11.5103200352
  C        13.0426493749        7.0606600124       11.4545593883
  H         9.1465791867        7.1448618692       20.2145992983
  H        10.3249795783        6.8065091955       18.0757662897
  S         6.2886861435        6.6004169049       20.9332129378
  H         5.6570501251        5.1863761358       18.5909752582
  H         6.8153654974        4.8939242441       16.4427620232
  H         8.3635114617        3.8329369243       15.2455485575
  H        10.4727686440        7.5356505968       15.9187466754
  H        11.5557895816        7.3175914553       13.7274070454
  H         9.4082356297        3.6467631704       13.0315486098
  H         8.7331617647        6.6454954767       11.7852631215
  H        11.7924929213        5.0461692790        9.2026113745
  H        10.5119351994        5.7676031071        7.2249575784
  S         7.8907400557        7.2219485922        7.0421803049
  H         7.4509513327        7.3804136988        9.8088566330
  C        13.7081934147        3.6080234599       12.4126403290
  C        14.9580886153        3.0177507280       12.6075405921
  C        16.1467100546        3.7489918095       12.4397886352
  C        16.1087572872        5.0955517411       12.0777931724
  H        12.7989263903        3.0271401247       12.5662089562
  H        15.0096715270        1.9689736527       12.9014657607
  H        17.1064421296        3.2570616813       12.5991421983
  H        17.0335618226        5.6609321756       11.9540928187
  C        12.3402835679        8.2310856749       11.1394430904
  C        13.0791969419        9.3856100385       10.8757012694
  C        15.1821301490        8.2227254726       11.2399626744
  H        11.2538927212        8.2510923909       11.0904321734
  C        14.4837653806        9.3866214864       10.9216323919
  H        12.5497176344       10.3055777691       10.6258470765
  H        16.2723367572        8.2248388177       11.2807755606
  H        15.0290457312       10.3061070829       10.7077765574
 Au         0.0000000000        0.0000000000       23.0678022631
 Au         7.3000000000       12.6439700000       23.0678022631
 Au        14.6000000000        0.0000000000       23.0678022631
 Au        21.9000000000       12.6439700000       23.0678022631
 Au         8.7600000000        0.0000000000       23.0678022631
 Au        16.0599990000       12.6439700000       23.0678022631
 Au         4.3800000000        7.5863820000       23.0678022631
 Au        18.9800000000        7.5863820000       23.0678022631
 Au        13.1399990000        7.5863820000       23.0678022631
 Au         2.9200000000        0.0000000000       23.0678022631
 Au        10.2199990000       12.6439700000       23.0678022631
 Au        17.5200000000        0.0000000000       23.0678022631
 Au        24.8200000000       12.6439700000       23.0678022631
 Au        11.6800000000        0.0000000000       23.0678022631
 Au        18.9800000000       12.6439700000       23.0678022631
 Au         7.3000000000        7.5863820000       23.0678022631
 Au        21.9000020000        7.5863820000       23.0678022631
 Au        16.0599990000        7.5863820000       23.0678022631
 Au         5.8400000000        0.0000000000       23.0678022631
 Au        13.1399990000       12.6439700000       23.0678022631
 Au        10.2200000000        7.5863820000       23.0678022631
 Au         1.4600000000        2.5287940000       23.0678022631
 Au         8.7599990000       15.1727650000       23.0678022631
 Au        16.0599990000        2.5287940000       23.0678022631
 Au        23.3599990000       15.1727650000       23.0678022631
 Au        10.2200000000        2.5287940000       23.0678022631
 Au        17.5200000000       15.1727650000       23.0678022631
 Au         5.8400000000       10.1151760000       23.0678022631
 Au        20.4400010000       10.1151760000       23.0678022631
 Au        14.6000000000       10.1151760000       23.0678022631
 Au         4.3800000000        2.5287940000       23.0678022631
 Au        11.6800000000       15.1727650000       23.0678022631
 Au        18.9800000000        2.5287940000       23.0678022631
 Au        26.2799990000       15.1727650000       23.0678022631
 Au        13.1400000000        2.5287940000       23.0678022631
 Au        20.4400010000       15.1727650000       23.0678022631
 Au         8.7600000000       10.1151760000       23.0678022631
 Au        23.3600010000       10.1151760000       23.0678022631
 Au        17.5200000000       10.1151760000       23.0678022631
 Au         7.3000000000        2.5287940000       23.0678022631
 Au        14.6000000000       15.1727650000       23.0678022631
 Au        11.6800000000       10.1151760000       23.0678022631
 Au         2.9200000000        5.0575880000       23.0678022631
 Au        17.5200000000        5.0575880000       23.0678022631
 Au        11.6800000000        5.0575880000       23.0678022631
 Au         5.8400000000        5.0575880000       23.0678022631
 Au        20.4400010000        5.0575880000       23.0678022631
 Au        14.6000000000        5.0575880000       23.0678022631
 Au         8.7600000000        5.0575880000       23.0678022631
 Au         1.4600000000        0.8429310000       25.4519722631
 Au         8.7600000000       13.4869010000       25.4519722631
 Au        16.0600010000        0.8429310000       25.4519722631
 Au        23.3600010000       13.4869010000       25.4519722631
 Au        10.2200000000        0.8429310000       25.4519722631
 Au        17.5200000000       13.4869010000       25.4519722631
 Au         5.8400000000        8.4293140000       25.4519722631
 Au        20.4400010000        8.4293140000       25.4519722631
 Au        14.6000000000        8.4293140000       25.4519722631
 Au         4.3800000000        0.8429310000       25.4519722631
 Au        11.6800000000       13.4869010000       25.4519722631
 Au        18.9800000000        0.8429310000       25.4519722631
 Au        26.2799990000       13.4869010000       25.4519722631
 Au        13.1400010000        0.8429310000       25.4519722631
 Au        20.4400010000       13.4869010000       25.4519722631
 Au         8.7600000000        8.4293140000       25.4519722631
 Au        23.3600010000        8.4293140000       25.4519722631
 Au        17.5200000000        8.4293140000       25.4519722631
 Au         7.3000000000        0.8429310000       25.4519722631
 Au        14.6000000000       13.4869010000       25.4519722631
 Au        11.6800000000        8.4293140000       25.4519722631
 Au         2.9200000000        3.3717260000       25.4519722631
 Au        10.2199990000       16.0156970000       25.4519722631
 Au        17.5200000000        3.3717260000       25.4519722631
 Au        24.8200000000       16.0156970000       25.4519722631
 Au        11.6800000000        3.3717260000       25.4519722631
 Au        18.9800000000       16.0156970000       25.4519722631
 Au         7.3000000000       10.9581090000       25.4519722631
 Au        21.9000020000       10.9581090000       25.4519722631
 Au        16.0599990000       10.9581090000       25.4519722631
 Au         5.8400000000        3.3717260000       25.4519722631
 Au        13.1399990000       16.0156970000       25.4519722631
 Au        20.4400010000        3.3717260000       25.4519722631
 Au        27.7400000000       16.0156970000       25.4519722631
 Au        14.6000000000        3.3717260000       25.4519722631
 Au        21.9000000000       16.0156970000       25.4519722631
 Au        10.2200000000       10.9581090000       25.4519722631
 Au        24.8200000000       10.9581090000       25.4519722631
 Au        18.9800000000       10.9581090000       25.4519722631
 Au         8.7600000000        3.3717260000       25.4519722631
 Au        16.0599990000       16.0156970000       25.4519722631
 Au        13.1400000000       10.9581090000       25.4519722631
 Au         4.3800000000        5.9005200000       25.4519722631
 Au        18.9800000000        5.9005200000       25.4519722631
 Au        13.1400000000        5.9005200000       25.4519722631
 Au         7.3000000000        5.9005200000       25.4519722631
 Au        21.9000020000        5.9005200000       25.4519722631
 Au        16.0599990000        5.9005200000       25.4519722631
 Au        10.2200000000        5.9005200000       25.4519722631
 Au         8.7600010000        1.6858630000       27.8361422631
 Au        16.0600010000       14.3298340000       27.8361422631
 Au        13.1399990000        9.2722460000       27.8361422631
 Au         2.9200000000        1.6858630000       27.8361422631
 Au        10.2199990000       14.3298340000       27.8361422631
 Au        17.5200000000        1.6858630000       27.8361422631
 Au        24.8200000000       14.3298340000       27.8361422631
 Au        11.6800000000        1.6858630000       27.8361422631
 Au        18.9800000000       14.3298340000       27.8361422631
 Au         7.3000000000        9.2722460000       27.8361422631
 Au        21.9000000000        9.2722460000       27.8361422631
 Au        16.0599990000        9.2722460000       27.8361422631
 Au         5.8400000000        1.6858630000       27.8361422631
 Au        13.1399990000       14.3298340000       27.8361422631
 Au        20.4400010000        1.6858630000       27.8361422631
 Au        27.7400000000       14.3298340000       27.8361422631
 Au        14.6000000000        1.6858630000       27.8361422631
 Au        21.9000000000       14.3298340000       27.8361422631
 Au        10.2199990000        9.2722460000       27.8361422631
 Au        24.8200000000        9.2722460000       27.8361422631
 Au        18.9800000000        9.2722460000       27.8361422631
 Au        10.2200010000        4.2146570000       27.8361422631
 Au        17.5200000000       16.8586270000       27.8361422631
 Au        14.6000000000       11.8010400000       27.8361422631
 Au         4.3800000000        4.2146570000       27.8361422631
 Au        11.6800000000       16.8586270000       27.8361422631
 Au        18.9800000000        4.2146570000       27.8361422631
 Au        26.2799990000       16.8586270000       27.8361422631
 Au        13.1400000000        4.2146570000       27.8361422631
 Au        20.4400010000       16.8586270000       27.8361422631
 Au         8.7600000000       11.8010400000       27.8361422631
 Au        23.3600010000       11.8010400000       27.8361422631
 Au        17.5200000000       11.8010400000       27.8361422631
 Au         7.3000000000        4.2146570000       27.8361422631
 Au        14.6000000000       16.8586270000       27.8361422631
 Au        21.9000020000        4.2146570000       27.8361422631
 Au        29.2000010000       16.8586270000       27.8361422631
 Au        16.0599990000        4.2146570000       27.8361422631
 Au        23.3599990000       16.8586270000       27.8361422631
 Au        11.6800000000       11.8010400000       27.8361422631
 Au        26.2800010000       11.8010400000       27.8361422631
 Au        20.4400010000       11.8010400000       27.8361422631
 Au        11.6800000000        6.7434510000       27.8361422631
 Au         5.8400000000        6.7434510000       27.8361422631
 Au        20.4400010000        6.7434510000       27.8361422631
 Au        14.6000000000        6.7434510000       27.8361422631
 Au         8.7600000000        6.7434510000       27.8361422631
 Au        23.3600010000        6.7434510000       27.8361422631
 Au        17.5200000000        6.7434510000       27.8361422631
Au    0.000000    0.000000    0.000000    R1
Au    7.300000    12.643970    0.000000    R1
Au    14.600000    0.000000    0.000000    R1
Au    21.900000    12.643970    0.000000    R1
Au    8.760000    0.000000    0.000000    R1
Au    16.059999    12.643970    0.000000    R1
Au    4.380000    7.586382    0.000000    R1
Au    18.980000    7.586382    0.000000    R1
Au    13.139999    7.586382    0.000000    R1
Au    2.920000    0.000000    0.000000    R1
Au    10.219999    12.643970    0.000000    R1
Au    17.520000    0.000000    0.000000    R1
Au    24.820000    12.643970    0.000000    R1
Au    11.680000    0.000000    0.000000    R1
Au    18.980000    12.643970    0.000000    R1
Au    7.300000    7.586382    0.000000    R1
Au    21.900002    7.586382    0.000000    R1
Au    16.059999    7.586382    0.000000    R1
Au    5.840000    0.000000    0.000000    R1
Au    13.139999    12.643970    0.000000    R1
Au    10.220000    7.586382    0.000000    R1
Au    1.460000    2.528794    0.000000    R1
Au    8.759999    15.172765    0.000000    R1
Au    16.059999    2.528794    0.000000    R1
Au    23.359999    15.172765    0.000000    R1
Au    10.220000    2.528794    0.000000    R1
Au    17.520000    15.172765    0.000000    R1
Au    5.840000    10.115176    0.000000    R1
Au    20.440001    10.115176    0.000000    R1
Au    14.600000    10.115176    0.000000    R1
Au    4.380000    2.528794    0.000000    R1
Au    11.680000    15.172765    0.000000    R1
Au    18.980000    2.528794    0.000000    R1
Au    26.279999    15.172765    0.000000    R1
Au    13.140000    2.528794    0.000000    R1
Au    20.440001    15.172765    0.000000    R1
Au    8.760000    10.115176    0.000000    R1
Au    23.360001    10.115176    0.000000    R1
Au    17.520000    10.115176    0.000000    R1
Au    7.300000    2.528794    0.000000    R1
Au    14.600000    15.172765    0.000000    R1
Au    11.680000    10.115176    0.000000    R1
Au    2.920000    5.057588    0.000000    R1
Au    17.520000    5.057588    0.000000    R1
Au    11.680000    5.057588    0.000000    R1
Au    5.840000    5.057588    0.000000    R1
Au    20.440001    5.057588    0.000000    R1
Au    14.600000    5.057588    0.000000    R1
Au    8.760000    5.057588    0.000000    R1
Au    1.460000    0.842931    2.384170    R1
Au    8.760000    13.486901    2.384170    R1
Au    16.060001    0.842931    2.384170    R1
Au    23.360001    13.486901    2.384170    R1
Au    10.220000    0.842931    2.384170    R1
Au    17.520000    13.486901    2.384170    R1
Au    5.840000    8.429314    2.384170    R1
Au    20.440001    8.429314    2.384170    R1
Au    14.600000    8.429314    2.384170    R1
Au    4.380000    0.842931    2.384170    R1
Au    11.680000    13.486901    2.384170    R1
Au    18.980000    0.842931    2.384170    R1
Au    26.279999    13.486901    2.384170    R1
Au    13.140001    0.842931    2.384170    R1
Au    20.440001    13.486901    2.384170    R1
Au    8.760000    8.429314    2.384170    R1
Au    23.360001    8.429314    2.384170    R1
Au    17.520000    8.429314    2.384170    R1
Au    7.300000    0.842931    2.384170    R1
Au    14.600000    13.486901    2.384170    R1
Au    11.680000    8.429314    2.384170    R1
Au    2.920000    3.371726    2.384170    R1
Au    10.219999    16.015697    2.384170    R1
Au    17.520000    3.371726    2.384170    R1
Au    24.820000    16.015697    2.384170    R1
Au    11.680000    3.371726    2.384170    R1
Au    18.980000    16.015697    2.384170    R1
Au    7.300000    10.958109    2.384170    R1
Au    21.900002    10.958109    2.384170    R1
Au    16.059999    10.958109    2.384170    R1
Au    5.840000    3.371726    2.384170    R1
Au    13.139999    16.015697    2.384170    R1
Au    20.440001    3.371726    2.384170    R1
Au    27.740000    16.015697    2.384170    R1
Au    14.600000    3.371726    2.384170    R1
Au    21.900000    16.015697    2.384170    R1
Au    10.220000    10.958109    2.384170    R1
Au    24.820000    10.958109    2.384170    R1
Au    18.980000    10.958109    2.384170    R1
Au    8.760000    3.371726    2.384170    R1
Au    16.059999    16.015697    2.384170    R1
Au    13.140000    10.958109    2.384170    R1
Au    4.380000    5.900520    2.384170    R1
Au    18.980000    5.900520    2.384170    R1
Au    13.140000    5.900520    2.384170    R1
Au    7.300000    5.900520    2.384170    R1
Au    21.900002    5.900520    2.384170    R1
Au    16.059999    5.900520    2.384170    R1
Au    10.220000    5.900520    2.384170    R1
Au    8.760001    1.685863    4.768340    R1
Au    16.060001    14.329834    4.768340    R1
Au    13.139999    9.272246    4.768340    R1
Au    2.920000    1.685863    4.768340    R1
Au    10.219999    14.329834    4.768340    R1
Au    17.520000    1.685863    4.768340    R1
Au    24.820000    14.329834    4.768340    R1
Au    11.680000    1.685863    4.768340    R1
Au    18.980000    14.329834    4.768340    R1
Au    7.300000    9.272246    4.768340    R1
Au    21.900000    9.272246    4.768340    R1
Au    16.059999    9.272246    4.768340    R1
Au    5.840000    1.685863    4.768340    R1
Au    13.139999    14.329834    4.768340    R1
Au    20.440001    1.685863    4.768340    R1
Au    27.740000    14.329834    4.768340    R1
Au    14.600000    1.685863    4.768340    R1
Au    21.900000    14.329834    4.768340    R1
Au    10.219999    9.272246    4.768340    R1
Au    24.820000    9.272246    4.768340    R1
Au    18.980000    9.272246    4.768340    R1
Au    10.220001    4.214657    4.768340    R1
Au    17.520000    16.858627    4.768340    R1
Au    14.600000    11.801040    4.768340    R1
Au    4.380000    4.214657    4.768340    R1
Au    11.680000    16.858627    4.768340    R1
Au    18.980000    4.214657    4.768340    R1
Au    26.279999    16.858627    4.768340    R1
Au    13.140000    4.214657    4.768340    R1
Au    20.440001    16.858627    4.768340    R1
Au    8.760000    11.801040    4.768340    R1
Au    23.360001    11.801040    4.768340    R1
Au    17.520000    11.801040    4.768340    R1
Au    7.300000    4.214657    4.768340    R1
Au    14.600000    16.858627    4.768340    R1
Au    21.900002    4.214657    4.768340    R1
Au    29.200001    16.858627    4.768340    R1
Au    16.059999    4.214657    4.768340    R1
Au    23.359999    16.858627    4.768340    R1
Au    11.680000    11.801040    4.768340    R1
Au    26.280001    11.801040    4.768340    R1
Au    20.440001    11.801040    4.768340    R1
Au    11.680000    6.743451    4.768340    R1
Au    5.840000    6.743451    4.768340    R1
Au    20.440001    6.743451    4.768340    R1
Au    14.600000    6.743451    4.768340    R1
Au    8.760000    6.743451    4.768340    R1
Au    23.360001    6.743451    4.768340    R1
Au    17.520000    6.743451    4.768340    R1
Au    0.000000    0.000000    7.15251    R2
Au    7.300000    12.643970    7.15251    R2
Au    14.600000    0.000000    7.15251    R2
Au    21.900000    12.643970    7.15251    R2
Au    8.760000    0.000000    7.15251    R2
Au    16.059999    12.643970    7.15251    R2
Au    4.380000    7.586382    7.15251    R2
Au    18.980000    7.586382    7.15251    R2
Au    13.139999    7.586382    7.15251    R2
Au    2.920000    0.000000    7.15251    R2