 420
 i =       82, E =     -3365.3998523447
Au     0.000000     0.000000     0.000000     L3
Au     8.760000     0.000000     0.000000     L3
Au     4.380000     7.586382     0.000000     L3
Au     13.140000     7.586382     0.000000     L3
Au     2.920000     0.000000     0.000000     L3
Au     11.680000     0.000000     0.000000     L3
Au     7.300000     7.586382     0.000000     L3
Au     16.059999     7.586382     0.000000     L3
Au     5.840000     0.000000     0.000000     L3
Au     10.220000     7.586382     0.000000     L3
Au     1.460000     2.528794     0.000000     L3
Au     10.220000     2.528794     0.000000     L3
Au     5.840000     10.115176     0.000000     L3
Au     14.600000     10.115176     0.000000     L3
Au     4.380000     2.528794     0.000000     L3
Au     13.140000     2.528794     0.000000     L3
Au     8.760000     10.115176     0.000000     L3
Au     17.520000     10.115176     0.000000     L3
Au     7.300000     2.528794     0.000000     L3
Au     11.680000     10.115176     0.000000     L3
Au     2.920000     5.057588     0.000000     L3
Au     11.680000     5.057588     0.000000     L3
Au     5.840000     5.057588     0.000000     L3
Au     14.600000     5.057588     0.000000     L3
Au     8.760000     5.057588     0.000000     L3
Au     1.460000     0.842931     2.384170     L3
Au     10.220000     0.842931     2.384170     L3
Au     5.840000     8.429314     2.384170     L3
Au     14.600000     8.429314     2.384170     L3
Au     4.380000     0.842931     2.384170     L3
Au     13.140000     0.842931     2.384170     L3
Au     8.760000     8.429314     2.384170     L3
Au     17.520000     8.429314     2.384170     L3
Au     7.300000     0.842931     2.384170     L3
Au     11.680000     8.429314     2.384170     L3
Au     2.920000     3.371726     2.384170     L3
Au     11.680000     3.371726     2.384170     L3
Au     7.300000     10.958108     2.384170     L3
Au     16.059999     10.958108     2.384170     L3
Au     5.840000     3.371726     2.384170     L3
Au     14.600000     3.371726     2.384170     L3
Au     10.220000     10.958108     2.384170     L3
Au     18.980000     10.958108     2.384170     L3
Au     8.760000     3.371726     2.384170     L3
Au     13.140000     10.958108     2.384170     L3
Au     4.380000     5.900520     2.384170     L3
Au     13.140000     5.900520     2.384170     L3
Au     7.300000     5.900520     2.384170     L3
Au     16.059999     5.900520     2.384170     L3
Au     10.220000     5.900520     2.384170     L3
Au     8.760000     1.685863     4.768340     L3
Au     13.140000     9.272245     4.768340     L3
Au     2.920000     1.685863     4.768340     L3
Au     11.680000     1.685863     4.768340     L3
Au     7.300000     9.272245     4.768340     L3
Au     16.059999     9.272245     4.768340     L3
Au     5.840000     1.685863     4.768340     L3
Au     14.600000     1.685863     4.768340     L3
Au     10.220000     9.272245     4.768340     L3
Au     18.980000     9.272245     4.768340     L3
Au     10.220000     4.214657     4.768340     L3
Au     14.600000     11.801040     4.768340     L3
Au     4.380000     4.214657     4.768340     L3
Au     13.140000     4.214657     4.768340     L3
Au     8.760000     11.801040     4.768340     L3
Au     17.520000     11.801040     4.768340     L3
Au     7.300000     4.214657     4.768340     L3
Au     16.059999     4.214657     4.768340     L3
Au     11.680000     11.801040     4.768340     L3
Au     20.440001     11.801040     4.768340     L3
Au     11.680000     6.743451     4.768340     L3
Au     5.840000     6.743451     4.768340     L3
Au     14.600000     6.743451     4.768340     L3
Au     8.760000     6.743451     4.768340     L3
Au     17.520000     6.743451     4.768340     L3
Au     0.000000     0.000000     7.152510     L2
Au     8.760000     0.000000     7.152510     L2
Au     4.380000     7.586382     7.152510     L2
Au     13.140000     7.586382     7.152510     L2
Au     2.920000     0.000000     7.152510     L2
Au     11.680000     0.000000     7.152510     L2
Au     7.300000     7.586382     7.152510     L2
Au     16.059999     7.586382     7.152510     L2
Au     5.840000     0.000000     7.152510     L2
Au     10.220000     7.586382     7.152510     L2
Au     1.460000     2.528794     7.152510     L2
Au     10.220000     2.528794     7.152510     L2
Au     5.840000     10.115176     7.152510     L2
Au     14.600000     10.115176     7.152510     L2
Au     4.380000     2.528794     7.152510     L2
Au     13.140000     2.528794     7.152510     L2
Au     8.760000     10.115176     7.152510     L2
Au     17.520000     10.115176     7.152510     L2
Au     7.300000     2.528794     7.152510     L2
Au     11.680000     10.115176     7.152510     L2
Au     2.920000     5.057588     7.152510     L2
Au     11.680000     5.057588     7.152510     L2
Au     5.840000     5.057588     7.152510     L2
Au     14.600000     5.057588     7.152510     L2
Au     8.760000     5.057588     7.152510     L2
Au     1.460000     0.842931     9.536680     L2
Au     10.220000     0.842931     9.536680     L2
Au     5.840000     8.429314     9.536680     L2
Au     14.600000     8.429314     9.536680     L2
Au     4.380000     0.842931     9.536680     L2
Au     13.140000     0.842931     9.536680     L2
Au     8.760000     8.429314     9.536680     L2
Au     17.520000     8.429314     9.536680     L2
Au     7.300000     0.842931     9.536680     L2
Au     11.680000     8.429314     9.536680     L2
Au     2.920000     3.371726     9.536680     L2
Au     11.680000     3.371726     9.536680     L2
Au     7.300000     10.958108     9.536680     L2
Au     16.059999     10.958108     9.536680     L2
Au     5.840000     3.371726     9.536680     L2
Au     14.600000     3.371726     9.536680     L2
Au     10.220000     10.958108     9.536680     L2
Au     18.980000     10.958108     9.536680     L2
Au     8.760000     3.371726     9.536680     L2
Au     13.140000     10.958108     9.536680     L2
Au     4.380000     5.900520     9.536680     L2
Au     13.140000     5.900520     9.536680     L2
Au     7.300000     5.900520     9.536680     L2
Au     16.059999     5.900520     9.536680     L2
Au     10.220000     5.900520     9.536680     L2
Au     8.760000     1.685863     11.920850     L2
Au     13.140000     9.272245     11.920850     L2
Au     2.920000     1.685863     11.920850     L2
Au     11.680000     1.685863     11.920850     L2
Au     7.300000     9.272245     11.920850     L2
Au     16.059999     9.272245     11.920850     L2
Au     5.840000     1.685863     11.920850     L2
Au     14.600000     1.685863     11.920850     L2
Au     10.220000     9.272245     11.920850     L2
Au     18.980000     9.272245     11.920850     L2
Au     10.220000     4.214657     11.920850     L2
Au     14.600000     11.801040     11.920850     L2
Au     4.380000     4.214657     11.920850     L2
Au     13.140000     4.214657     11.920850     L2
Au     8.760000     11.801040     11.920850     L2
Au     17.520000     11.801040     11.920850     L2
Au     7.300000     4.214657     11.920850     L2
Au     16.059999     4.214657     11.920850     L2
Au     11.680000     11.801040     11.920850     L2
Au     20.440001     11.801040     11.920850     L2
Au     11.680000     6.743451     11.920850     L2
Au     5.840000     6.743451     11.920850     L2
Au     14.600000     6.743451     11.920850     L2
Au     8.760000     6.743451     11.920850     L2
Au     17.520000     6.743451     11.920850     L2
Au     0.000000     0.000000     14.305019     L1
Au     8.760000     0.000000     14.305019     L1
Au     4.380000     7.586382     14.305019     L1
Au     13.140000     7.586382     14.305019     L1
Au     2.920000     0.000000     14.305019     L1
Au     11.680000     0.000000     14.305019     L1
Au     7.300000     7.586382     14.305019     L1
Au     16.059999     7.586382     14.305019     L1
Au     5.840000     0.000000     14.305019     L1
Au     10.220000     7.586382     14.305019     L1
Au     1.460000     2.528794     14.305019     L1
Au     10.220000     2.528794     14.305019     L1
Au     5.840000     10.115176     14.305019     L1
Au     14.600000     10.115176     14.305019     L1
Au     4.380000     2.528794     14.305019     L1
Au     13.140000     2.528794     14.305019     L1
Au     8.760000     10.115176     14.305019     L1
Au     17.520000     10.115176     14.305019     L1
Au     7.300000     2.528794     14.305019     L1
Au     11.680000     10.115176     14.305019     L1
Au     2.920000     5.057588     14.305019     L1
Au     11.680000     5.057588     14.305019     L1
Au     5.840000     5.057588     14.305019     L1
Au     14.600000     5.057588     14.305019     L1
Au     8.760000     5.057588     14.305019     L1
Au     1.460000     0.842931     16.689190     L1
Au     10.220000     0.842931     16.689190     L1
Au     5.840000     8.429314     16.689190     L1
Au     14.600000     8.429314     16.689190     L1
Au     4.380000     0.842931     16.689190     L1
Au     13.140000     0.842931     16.689190     L1
Au     8.760000     8.429314     16.689190     L1
Au     17.520000     8.429314     16.689190     L1
Au     7.300000     0.842931     16.689190     L1
Au     11.680000     8.429314     16.689190     L1
Au     2.920000     3.371726     16.689190     L1
Au     11.680000     3.371726     16.689190     L1
Au     7.300000     10.958108     16.689190     L1
Au     16.059999     10.958108     16.689190     L1
Au     5.840000     3.371726     16.689190     L1
Au     14.600000     3.371726     16.689190     L1
Au     10.220000     10.958108     16.689190     L1
Au     18.980000     10.958108     16.689190     L1
Au     8.760000     3.371726     16.689190     L1
Au     13.140000     10.958108     16.689190     L1
Au     4.380000     5.900520     16.689190     L1
Au     13.140000     5.900520     16.689190     L1
Au     7.300000     5.900520     16.689190     L1
Au     16.059999     5.900520     16.689190     L1
Au     10.220000     5.900520     16.689190     L1
Au     8.760000     1.685863     19.073360     L1
Au     13.140000     9.272245     19.073360     L1
Au     2.920000     1.685863     19.073360     L1
Au     11.680000     1.685863     19.073360     L1
Au     7.300000     9.272245     19.073360     L1
Au     16.059999     9.272245     19.073360     L1
Au     5.840000     1.685863     19.073360     L1
Au     14.600000     1.685863     19.073360     L1
Au     10.220000     9.272245     19.073360     L1
Au     18.980000     9.272245     19.073360     L1
Au     10.220000     4.214657     19.073360     L1
Au     14.600000     11.801040     19.073360     L1
Au     4.380000     4.214657     19.073360     L1
Au     13.140000     4.214657     19.073360     L1
Au     8.760000     11.801040     19.073360     L1
Au     17.520000     11.801040     19.073360     L1
Au     7.300000     4.214657     19.073360     L1
Au     16.059999     4.214657     19.073360     L1
Au     11.680000     11.801040     19.073360     L1
Au     20.440001     11.801040     19.073360     L1
Au     11.680000     6.743451     19.073360     L1
Au     5.840000     6.743451     19.073360     L1
Au     14.600000     6.743451     19.073360     L1
Au     8.760000     6.743451     19.073360     L1
Au     17.520000     6.743451     19.073360     L1
Au    0.0000000000    0.0000000000    21.1860323997    L0
Au    8.7600000000    0.0000000000    21.2189093056    L0
Au    4.3800000000    7.5863820000    21.155908341    L0
Au    13.1400000000    7.5863820000    21.2037664229    L0
Au    2.9200000000    0.0000000000    21.1953144508    L0
Au    11.6800000000    0.0000000000    21.1835634726    L0
Au    7.3000000000    7.5863820000    21.1743510673    L0
Au    16.0599990000    7.5863820000    21.1776915968    L0
Au    5.8400000000    0.0000000000    21.2286891516    L0
Au    10.2200000000    7.5863820000    21.2217014415    L0
Au    1.4600000000    2.5287940000    21.1978288706    L0
Au    10.2200000000    2.5287940000    21.226966803    L0
Au    5.8400000000    10.1151760000    21.1771374835    L0
Au    14.6000000000    10.1151760000    21.195545886    L0
Au    4.3800000000    2.5287940000    21.2706280136    L0
Au    13.1400000000    2.5287940000    21.184279164    L0
Au    8.7600000000    10.1151760000    21.2259101941    L0
Au    17.5200000000    10.1151760000    21.177763144100002    L0
Au    7.3000000000    2.5287940000    21.311536447    L0
Au    11.6800000000    10.1151760000    21.2082031911    L0
Au    2.9200000000    5.0575880000    21.1912008354    L0
Au    11.6800000000    5.0575880000    21.2178977258    L0
Au    5.8400000000    5.0575880000    21.2337416304    L0
Au    14.6000000000    5.0575880000    21.1814600784    L0
Au    8.7600000000    5.0575880000    21.2395842103    L0
Au    1.4600000000    0.8429310000    23.8196351889    L0
Au    10.2200000000    0.8429310000    23.829218400400002    L0
Au    5.8400000000    8.4293140000    23.7604264154    L0
Au    14.6000000000    8.4293140000    23.8177195291    L0
Au    4.3800000000    0.8429310000    23.8507156094    L0
Au    13.1400000000    0.8429310000    23.809938545    L0
Au    8.7600000000    8.4293140000    23.8614544389    L0
Au    17.5200000000    8.4293140000    23.7953704082    L0
Au    7.3000000000    0.8429310000    23.8735365248    L0
Au    11.6800000000    8.4293140000    23.8280930482    L0
Au    2.9200000000    3.3717260000    23.8396572967    L0
Au    11.6800000000    3.3717260000    23.8102627101    L0
Au    7.3000000000    10.9581080000    23.8126253173    L0
Au    16.0599990000    10.9581080000    23.8202568104    L0
Au    5.8400000000    3.3717260000    23.9796075345    L0
Au    14.6000000000    3.3717260000    23.8088564243    L0
Au    10.2200000000    10.9581080000    23.8232976997    L0
Au    18.9800000000    10.9581080000    23.8041272768    L0
Au    8.7600000000    3.3717260000    23.908177082999998    L0
Au    13.1400000000    10.9581080000    23.8357490074    L0
Au    4.3800000000    5.9005200000    23.7842410156    L0
Au    13.1400000000    5.9005200000    23.8172478626    L0
Au    7.3000000000    5.9005200000    23.8256981903    L0
Au    16.0599990000    5.9005200000    23.8081257035    L0
Au    10.2200000000    5.9005200000    23.8497641016    L0
Au    8.7600000000    1.6858630000    26.4784763978    L0
Au    13.1400000000    9.2722450000    26.4566489003    L0
Au    2.9200000000    1.6858630000    26.4626494523    L0
Au    11.6800000000    1.6858630000    26.4391491792    L0
Au    7.3000000000    9.2722450000    26.413248051700002    L0
Au    16.0599990000    9.2722450000    26.4351076217    L0
Au    5.8400000000    1.6858630000    26.5158107738    L0
Au    14.6000000000    1.6858630000    26.4374013725    L0
Au    10.2200000000    9.2722450000    26.4421908075    L0
Au    18.9800000000    9.2722450000    26.4127409949    L0
Au    10.2200000000    4.2146570000    26.3919645354    L0
Au    14.6000000000    11.8010400000    26.4682248102    L0
Au    4.3800000000    4.2146570000    26.486768803    L0
Au    13.1400000000    4.2146570000    26.4311276747    L0
Au    8.7600000000    11.8010400000    26.4448082986    L0
Au    17.5200000000    11.8010400000    26.4405058595    L0
Au    7.3000000000    4.2146570000    26.8668530741    L0
Au    16.0599990000    4.2146570000    26.4393698642    L0
Au    11.6800000000    11.8010400000    26.4599479634    L0
Au    20.4400010000    11.8010400000    26.4361356085    L0
Au    11.6800000000    6.7434510000    26.4354669373    L0
Au    5.8400000000    6.7434510000    26.2704377309    L0
Au    14.6000000000    6.7434510000    26.4414790803    L0
Au    8.7600000000    6.7434510000    26.4357899595    L0
Au    17.5200000000    6.7434510000    26.4225045627    L0
C    9.126127922334824    9.056840923795832    31.5542513601158    S1
N    8.637941719181459    9.60397122733098    32.465255205005725    S1
H    9.5700813103931    8.544823744294598    30.704171139505306    S1
C    10.907143144548055    4.916886213602738    38.73699023169645    S
C    11.7617871875054    3.9743943645647133    38.13693673289538    S
C    11.274500849034988    3.123291803553819    37.13812925037495    S
C    9.935906206045084    3.182929650996866    36.71081746600657    S
C    9.554794537327787    4.962965312966033    38.34717459410957    S
C    9.085116930910239    4.1067893105782245    37.34698969440996    S
C    9.416703633535967    3.5458638442979016    31.771246165669783    S
H    11.959188046791912    2.4070772257587905    36.668184158413496    S
S    11.459530712309636    6.093812044028683    39.9585311786502    S
H    8.87251804880601    5.6785157654700384    38.817820617295475    S
H    8.03375150520191    4.169580279293205    37.042075447611005    S
H    12.81324217372766    3.911549479989719    38.43766568997982    S
C    10.675435710718077    3.6683453799851877    31.15341398128514    S
C    10.933864594497786    4.6716072410945895    30.21303950475376    S
C    9.924729892421913    5.591286177761462    29.877790938929042    S
C    8.649842472436532    5.4639426956935075    30.45810194927421    S
C    8.407091336787113    4.448358082376365    31.389768436508987    S
H    11.923949431918786    4.742068783825008    29.750201840712595    S
H    11.478476002375231    2.972726975739758    31.424167017999842    S
H    7.850536374032578    6.165939733221872    30.197481492299616    S
H    7.4152647605071484    4.374243484276734    31.85037669564824    S
S    10.1896642657    6.9401248065    28.729184105    S
C    9.463431380342369    2.3945979237634276    35.50869482017947    S
C    9.205595087656084    2.578850816790244    32.915206888044445    S
C    9.6367447540983    3.2497013531997165    34.23643944810489    S
H    9.792251390055311    1.6543716443850687    32.75645386836511    S
H    8.142755430787092    2.2788773492509136    32.97686292697848    S
H    10.039254355621829    1.45506669603206    35.410095541181605    S
H    8.400528404045245    2.109196823529535    35.62320692988845    S
H    9.069099389922869    4.191204845168775    34.360088445732075    S
H    10.69751549320244    3.5532265037442805    34.153141693409104    S
Au    8.7600020000    1.6858630000    42.1857461387    R0
Au    13.1400000000    9.2722460000    42.1034754222    R0
Au    2.9200000000    1.6858630000    42.1347623847    R0
Au    11.6800000000    1.6858630000    42.088165164900005    R0
Au    7.3000000000    9.2722460000    42.0516596278    R0
Au    16.0599990000    9.2722460000    42.1268498491    R0
Au    5.8400010000    1.6858630000    42.1794876485    R0
Au    14.6000000000    1.6858630000    42.0966214396    R0
Au    10.2200000000    9.2722460000    42.042574889899996    R0
Au    18.9800000000    9.2722460000    42.1094552049    R0
Au    10.2200010000    4.2146570000    42.0789645852    R0
Au    14.6000000000    11.8010400000    42.1339262652    R0
Au    4.3800000000    4.2146570000    42.1687874931    R0
Au    13.1400000000    4.2146570000    42.0701502497    R0
Au    8.7600000000    11.8010400000    42.0945514293    R0
Au    17.5200000000    11.8010400000    42.1149755497    R0
Au    7.3000000000    4.2146570000    42.332940644800004    R0
Au    16.0599990000    4.2146570000    42.1130002641    R0
Au    11.6800000000    11.8010400000    42.118190877100005    R0
Au    20.4400010000    11.8010400000    42.097960145900004    R0
Au    11.6800000000    6.7434510000    42.1476599464    R0
Au    5.8400000000    6.7434510000    42.1449236778    R0
Au    14.6000000000    6.7434510000    42.1084592788    R0
Au    8.7600000000    6.7434510000    41.804130521800005    R0
Au    17.5200000000    6.7434510000    42.1325229844    R0
Au    1.4600000000    0.8429310000    44.739888380400004    R0
Au    10.2200000000    0.8429310000    44.7460374944    R0
Au    5.8400010000    8.4293140000    44.7178945192    R0
Au    14.6000000000    8.4293140000    44.7392130054    R0
Au    4.3800000000    0.8429310000    44.772750676    R0
Au    13.1400010000    0.8429310000    44.721267111100005    R0
Au    8.7600000000    8.4293140000    44.5705284784    R0
Au    17.5200000000    8.4293140000    44.7502166292    R0
Au    7.3000010000    0.8429310000    44.7860645079    R0
Au    11.6800000000    8.4293140000    44.7035586159    R0
Au    2.9200000000    3.3717260000    44.767002331    R0
Au    11.6800010000    3.3717260000    44.6366171202    R0
Au    7.3000000000    10.9581090000    44.710350761200004    R0
Au    16.0599980000    10.9581090000    44.7529012791    R0
Au    5.8400000000    3.3717260000    44.8435745661    R0
Au    14.6000000000    3.3717260000    44.7140712266    R0
Au    10.2200000000    10.9581090000    44.7105280412    R0
Au    18.9800000000    10.9581090000    44.7316410685    R0
Au    8.7600000000    3.3717260000    44.7952741333    R0
Au    13.1399990000    10.9581090000    44.744236877199995    R0
Au    4.3800000000    5.9005200000    44.770680259    R0
Au    13.1400000000    5.9005200000    44.7160568514    R0
Au    7.3000000000    5.9005200000    44.751931108099996    R0
Au    16.0599990000    5.9005200000    44.7418026691    R0
Au    10.2200000000    5.9005200000    44.6631638099    R0
Au    0.0000000000    0.0000000000    47.3633556252    R0
Au    8.7600000000    0.0000000000    47.383065521199995    R0
Au    4.3800000000    7.5863820000    47.369616598099995    R0
Au    13.1399990000    7.5863820000    47.3384451206    R0
Au    2.9200000000    0.0000000000    47.3695063467    R0
Au    11.6800000000    0.0000000000    47.3518400208    R0
Au    7.3000000000    7.5863820000    47.2989907973    R0
Au    16.0599990000    7.5863820000    47.370712558    R0
Au    5.8400000000    0.0000000000    47.3994380531    R0
Au    10.2200000000    7.5863820000    47.2651412975    R0
Au    1.4600000000    2.5287940000    47.368062732599995    R0
Au    10.2200000000    2.5287940000    47.3585331796    R0
Au    5.8400000000    10.1151760000    47.3432780448    R0
Au    14.6000000000    10.1151760000    47.3746416137    R0
Au    4.3800000000    2.5287940000    47.423082585900005    R0
Au    13.1400000000    2.5287940000    47.2921012042    R0
Au    8.7600000000    10.1151760000    47.278743258199995    R0
Au    17.5200000000    10.1151760000    47.3736425174    R0
Au    7.3000000000    2.5287940000    47.4280247935    R0
Au    11.6800000000    10.1151760000    47.3357102235    R0
Au    2.9200000000    5.0575880000    47.3909455262    R0
Au    11.6800000000    5.0575880000    47.3040860722    R0
Au    5.8400000000    5.0575880000    47.4142573308    R0
Au    14.6000000000    5.0575880000    47.3355460363    R0
Au    8.7600000000    5.0575880000    47.367459495999995    R0
Au    8.760002    1.685863   49.476150599700006 R1
Au   13.140000    9.272246   49.476150599700006 R1
Au    2.920000    1.685863   49.476150599700006 R1
Au   11.680000    1.685863   49.476150599700006 R1
Au    7.300000    9.272246   49.476150599700006 R1
Au   16.059999    9.272246   49.476150599700006 R1
Au    5.840001    1.685863   49.476150599700006 R1
Au   14.600000    1.685863   49.476150599700006 R1
Au   10.220000    9.272246   49.476150599700006 R1
Au   18.980000    9.272246   49.476150599700006 R1
Au   10.220001    4.214657   49.476150599700006 R1
Au   14.600000   11.801040   49.476150599700006 R1
Au    4.380000    4.214657   49.476150599700006 R1
Au   13.140000    4.214657   49.476150599700006 R1
Au    8.760000   11.801040   49.476150599700006 R1
Au   17.520000   11.801040   49.476150599700006 R1
Au    7.300000    4.214657   49.476150599700006 R1
Au   16.059999    4.214657   49.476150599700006 R1
Au   11.680000   11.801040   49.476150599700006 R1
Au   20.440001   11.801040   49.476150599700006 R1
Au   11.680000    6.743451   49.476150599700006 R1
Au    5.840000    6.743451   49.476150599700006 R1
Au   14.600000    6.743451   49.476150599700006 R1
Au    8.760000    6.743451   49.476150599700006 R1
Au   17.520000    6.743451   49.476150599700006 R1
Au    1.460000    0.842931   51.8603205997 R1
Au   10.220000    0.842931   51.8603205997 R1
Au    5.840001    8.429314   51.8603205997 R1
Au   14.600000    8.429314   51.8603205997 R1
Au    4.380000    0.842931   51.8603205997 R1
Au   13.140001    0.842931   51.8603205997 R1
Au    8.760000    8.429314   51.8603205997 R1
Au   17.520000    8.429314   51.8603205997 R1
Au    7.300001    0.842931   51.8603205997 R1
Au   11.680000    8.429314   51.8603205997 R1
Au    2.920000    3.371726   51.8603205997 R1
Au   11.680001    3.371726   51.8603205997 R1
Au    7.300000   10.958109   51.8603205997 R1
Au   16.059998   10.958109   51.8603205997 R1
Au    5.840000    3.371726   51.8603205997 R1
Au   14.600000    3.371726   51.8603205997 R1
Au   10.220000   10.958109   51.8603205997 R1
Au   18.980000   10.958109   51.8603205997 R1
Au    8.760000    3.371726   51.8603205997 R1
Au   13.139999   10.958109   51.8603205997 R1
Au    4.380000    5.900520   51.8603205997 R1
Au   13.140000    5.900520   51.8603205997 R1
Au    7.300000    5.900520   51.8603205997 R1
Au   16.059999    5.900520   51.8603205997 R1
Au   10.220000    5.900520   51.8603205997 R1
Au    0.000000    0.000000   54.24449059970001 R1
Au    8.760000    0.000000   54.24449059970001 R1
Au    4.380000    7.586382   54.24449059970001 R1
Au   13.139999    7.586382   54.24449059970001 R1
Au    2.920000    0.000000   54.24449059970001 R1
Au   11.680000    0.000000   54.24449059970001 R1
Au    7.300000    7.586382   54.24449059970001 R1
Au   16.059999    7.586382   54.24449059970001 R1
Au    5.840000    0.000000   54.24449059970001 R1
Au   10.220000    7.586382   54.24449059970001 R1
Au    1.460000    2.528794   54.24449059970001 R1
Au   10.220000    2.528794   54.24449059970001 R1
Au    5.840000   10.115176   54.24449059970001 R1
Au   14.600000   10.115176   54.24449059970001 R1
Au    4.380000    2.528794   54.24449059970001 R1
Au   13.140000    2.528794   54.24449059970001 R1
Au    8.760000   10.115176   54.24449059970001 R1
Au   17.520000   10.115176   54.24449059970001 R1
Au    7.300000    2.528794   54.24449059970001 R1
Au   11.680000   10.115176   54.24449059970001 R1
Au    2.920000    5.057588   54.24449059970001 R1
Au   11.680000    5.057588   54.24449059970001 R1
Au    5.840000    5.057588   54.24449059970001 R1
Au   14.600000    5.057588   54.24449059970001 R1
Au    8.760000    5.057588   54.24449059970001 R1
Au    8.760002    1.685863   56.628660599700005 R2
Au   13.140000    9.272246   56.628660599700005 R2
Au    2.920000    1.685863   56.628660599700005 R2
Au   11.680000    1.685863   56.628660599700005 R2
Au    7.300000    9.272246   56.628660599700005 R2
Au   16.059999    9.272246   56.628660599700005 R2
Au    5.840001    1.685863   56.628660599700005 R2
Au   14.600000    1.685863   56.628660599700005 R2
Au   10.220000    9.272246   56.628660599700005 R2
Au   18.980000    9.272246   56.628660599700005 R2
Au   10.220001    4.214657   56.628660599700005 R2
Au   14.600000   11.801040   56.628660599700005 R2
Au    4.380000    4.214657   56.628660599700005 R2
Au   13.140000    4.214657   56.628660599700005 R2
Au    8.760000   11.801040   56.628660599700005 R2
Au   17.520000   11.801040   56.628660599700005 R2
Au    7.300000    4.214657   56.628660599700005 R2
Au   16.059999    4.214657   56.628660599700005 R2
Au   11.680000   11.801040   56.628660599700005 R2
Au   20.440001   11.801040   56.628660599700005 R2
Au   11.680000    6.743451   56.628660599700005 R2
Au    5.840000    6.743451   56.628660599700005 R2
Au   14.600000    6.743451   56.628660599700005 R2
Au    8.760000    6.743451   56.628660599700005 R2
Au   17.520000    6.743451   56.628660599700005 R2
Au    1.460000    0.842931   59.0128305997 R2
Au   10.220000    0.842931   59.0128305997 R2
Au    5.840001    8.429314   59.0128305997 R2
Au   14.600000    8.429314   59.0128305997 R2
Au    4.380000    0.842931   59.0128305997 R2
Au   13.140001    0.842931   59.0128305997 R2
Au    8.760000    8.429314   59.0128305997 R2
Au   17.520000    8.429314   59.0128305997 R2
Au    7.300001    0.842931   59.0128305997 R2
Au   11.680000    8.429314   59.0128305997 R2
Au    2.920000    3.371726   59.0128305997 R2
Au   11.680001    3.371726   59.0128305997 R2
Au    7.300000   10.958109   59.0128305997 R2
Au   16.059998   10.958109   59.0128305997 R2
Au    5.840000    3.371726   59.0128305997 R2
Au   14.600000    3.371726   59.0128305997 R2
Au   10.220000   10.958109   59.0128305997 R2
Au   18.980000   10.958109   59.0128305997 R2
Au    8.760000    3.371726   59.0128305997 R2
Au   13.139999   10.958109   59.0128305997 R2
Au    4.380000    5.900520   59.0128305997 R2
Au   13.140000    5.900520   59.0128305997 R2
Au    7.300000    5.900520   59.0128305997 R2
Au   16.059999    5.900520   59.0128305997 R2
Au   10.220000    5.900520   59.0128305997 R2
Au    0.000000    0.000000   61.39700059970001 R2
Au    8.760000    0.000000   61.39700059970001 R2
Au    4.380000    7.586382   61.39700059970001 R2
Au   13.139999    7.586382   61.39700059970001 R2
Au    2.920000    0.000000   61.39700059970001 R2
Au   11.680000    0.000000   61.39700059970001 R2
Au    7.300000    7.586382   61.39700059970001 R2
Au   16.059999    7.586382   61.39700059970001 R2
Au    5.840000    0.000000   61.39700059970001 R2
Au   10.220000    7.586382   61.39700059970001 R2
Au    1.460000    2.528794   61.39700059970001 R2
Au   10.220000    2.528794   61.39700059970001 R2
Au    5.840000   10.115176   61.39700059970001 R2
Au   14.600000   10.115176   61.39700059970001 R2
Au    4.380000    2.528794   61.39700059970001 R2
Au   13.140000    2.528794   61.39700059970001 R2
Au    8.760000   10.115176   61.39700059970001 R2
Au   17.520000   10.115176   61.39700059970001 R2
Au    7.300000    2.528794   61.39700059970001 R2
Au   11.680000   10.115176   61.39700059970001 R2
Au    2.920000    5.057588   61.39700059970001 R2
Au   11.680000    5.057588   61.39700059970001 R2
Au    5.840000    5.057588   61.39700059970001 R2
Au   14.600000    5.057588   61.39700059970001 R2
Au    8.760000    5.057588   61.39700059970001 R2