     31
 i =      295, E =      -113.9827245113
  C        -1.0137808216        9.1986657883      -18.5629442654
  C        -0.5475316690       10.3761896417      -17.8982770605
  C        -0.3018596559       10.3754008390      -16.5379344755
  C        -0.5075108905        9.2158423754      -15.7564495112
  C        -1.2131812263        8.0294705637      -17.7636828635
  C        -0.9619928811        8.0450650454      -16.4042469278
  C         3.0463587896        8.4787287166      -12.2758662764
  H         0.0476057906       11.2889287662      -16.0515466383
  S        -1.3225393017        9.1900553357      -20.2359861236
  H        -1.5748587020        7.1269605238      -18.2562305343
  H        -1.1280467085        7.1412557861      -15.8137021905
  H        -0.3969720348       11.2759894106      -18.4946787075
  C         4.0442708443        9.4781757389      -12.2294173303
  C         5.3743607852        9.1547800982      -12.0346207514
  C         5.7867849927        7.7940194619      -11.8811825578
  C         4.7701061221        6.7898981338      -11.9406279661
  C         3.4442864532        7.1299814998      -12.1355072822
  H         6.1382887064        9.9307354985      -11.9863182788
  H         3.7532120051       10.5254974279      -12.3374089983
  H         5.0696477208        5.7487829532      -11.8205365679
  H         2.6846686780        6.3457423609      -12.1703655424
  S         7.4203826409        7.3866397059      -11.6328662912
  C        -0.1969220867        9.2130236032      -14.2929197268
  C         1.6135867280        8.8340578739      -12.5200549970
  C         1.2848957042        8.8419419010      -14.0339361136
  H         1.3904216451        9.8287542322      -12.1035634693
  H         0.9508394458        8.1118984493      -12.0181328129
  H        -0.3937240346       10.2056319375      -13.8584053328
  H        -0.8402684705        8.4906922739      -13.7668404161
  H         1.4993024309        7.8520313301      -14.4643699891
  H         1.9416541056        9.5573290134      -14.5516029445
