      31
 i =       17, E =       -94.8432842331
  C        -1.0184949767        9.1995661680      -18.5703010839
  C        -0.5623183434       10.3630762528      -17.9447793656
  C        -0.3066080500       10.3666599195      -16.5714444310
  C        -0.4997600359        9.2125045288      -15.7967515794
  C        -1.2193612552        8.0436389903      -17.8112108783
  C        -0.9617770875        8.0530566609      -16.4380811746
  C         3.0836971956        8.4681915137      -12.2820321237
  H         0.0459705809       11.2815128653      -16.0893067722
  H        -1.2202064700        9.1949502830      -19.6421186811
  H        -1.5812901361        7.1321011360      -18.2892577073
  H        -1.1251370973        7.1463351677      -15.8508169011
  H        -0.4083340660       11.2722979952      -18.5278878467
  C         4.0733421930        9.4614700645      -12.2248151109
  C         5.4157720587        9.1300015476      -12.0252718532
  C         5.7936972795        7.7925746163      -11.8794023198
  C         4.8190218903        6.7924289585      -11.9317846743
  C         3.4781615150        7.1298147751      -12.1314484100
  H         6.1685628631        9.9184669700      -11.9800120500
  H         3.7855148670       10.5098181345      -12.3335572489
  H         5.1034197165        5.7457779206      -11.8131343046
  H         2.7217525071        6.3422114873      -12.1667162517
  H         6.8407853397        7.5315945433      -11.7212447231
  C        -0.1703247229        9.2048084800      -14.3231547380
  C         1.6407766924        8.8258186507      -12.5475075124
  C         1.2989527608        8.8376233176      -14.0481503546
  H         1.4203344685        9.8173752790      -12.1199032919
  H         0.9805434543        8.1085313763      -12.0334068418
  H        -0.3807831414       10.1964071549      -13.8904694486
  H        -0.8250396447        8.4887462873      -13.8004917443
  H         1.5171349749        7.8487162261      -14.4820476223
  H         1.9586329404        9.5498544579      -14.5690554410
