      56
 i =      347, E =      -164.4263272131
  C         5.6504283419        4.6187628782       20.9803053798
  C         6.1959130452        3.7215467406       20.0288087035
  C         6.7802093850        4.1161736831       18.8558984062
  C         9.1185817130        4.7005028694       15.1762986715
  C         7.8120164525        4.3041441276       14.4627301522
  C         8.1011651958        3.9443758740       12.9916775958
  C         8.5649243234        4.5853167100        9.7535452344
  C         5.0529938470        4.2083703378       22.1757659847
  C         9.7497632282        4.3974191555        9.0961123966
  C        10.8358296384        5.3010331194        9.1800593086
  C        12.0760933732        5.1514922533        8.5374492546
  C         6.9709774196        6.7492042066       14.0839986011
  C         7.3800629381        7.7597416438       14.8761306087
  C         6.7080421413        6.9704463218       12.6493660010
  H         5.6932332735        5.6928491420       20.7769975074
  H         5.0198184612        3.1256264707       22.3627042479
  S         4.3970957338        5.2437856988       23.3170856333
  H         6.1406156852        2.6502772135       20.2531545915
  H         9.8911805815        3.5132970546        8.4662216449
  H        10.7004022207        6.1943691393        9.7990468874
  S        12.5450806547        3.8796757762        7.5494592891
  H        12.8000800292        5.9569075344        8.7130207382
  C         7.3574643099        3.1964964706       17.8376884536
  C         7.4137444515        3.6398534646        9.6923008742
  C         7.3759549253        7.8066096402       11.8379583554
  H         5.8856036079        6.3830128207       12.2259394359
  H         8.2358979463        8.3797604071       12.1890021867
  H         7.0798848598        7.9416828566       10.7975431077
  H         8.4504904784        5.4838430953       10.3687290350
  H         6.8314318818        5.1909448112       18.6502207796
  H         7.5141850496        8.7696377531       14.4878523884
  H         7.5648775100        7.6099023560       15.9403128600
  C         8.8329896098        3.5048945470       17.4761177665
  C         6.9393813445        3.2661356877       12.2541882535
  H         6.7484604334        3.2595083033       16.9169858687
  H         7.2754191343        2.1578609245       18.1931131570
  H         8.9630721436        3.2559712901       12.9776425497
  H         8.4309197435        4.8468801887       12.4553738232
  C         7.2915507466        2.6553111557       10.8899731272
  C         9.0889716963        4.8193714616       16.7101330960
  H         7.4935460452        3.0368306162        8.7746653238
  H         6.4720312273        4.2109436708        9.6270798091
  H         8.2273801046        2.0789377606       10.9708917183
  H         6.5056404452        1.9341601680       10.6157966113
  H         6.5591501704        2.4522914119       12.8959719808
  H         6.0947384879        3.9635094021       12.1275807039
  H         9.8892520052        3.9568147934       14.9110375387
  H         9.4677240492        5.6587313891       14.7574681308
  H         9.2207241210        2.6606420204       16.8825068085
  H         9.4104811130        3.5068857458       18.4131009506
  H         8.3642995402        5.5881101477       17.0219611806
  H        10.0693782453        5.2131077528       17.0196760184
  C         6.6906485759        5.3667579099       14.6444164120
  H         5.7655265180        4.9804591278       14.1865012152
  H         6.4766000704        5.4629037903       15.7187037327
  H         7.4298901419        3.3803780836       14.9356899236