     152
 i =      421, E =     -3354.9935317888
 Au         0.0000000000        0.0000000000        0.0000000000
 Au         8.7600000000        0.0000000000        0.0000000000
 Au         4.3800000000        7.5863820000        0.0000000000
 Au        13.1400000000        7.5863820000        0.0000000000
 Au         2.9200000000        0.0000000000        0.0000000000
 Au         7.3000000000        7.5863820000        0.0000000000
 Au         5.8400000000        0.0000000000        0.0000000000
 Au        10.2200000000        7.5863820000        0.0000000000
 Au         1.4600000000        2.5287940000        0.0000000000
 Au        10.2200000000        2.5287940000        0.0000000000
 Au         4.3800000000        2.5287940000        0.0000000000
 Au         7.3000000000        2.5287940000        0.0000000000
 Au         2.9200000000        5.0575880000        0.0000000000
 Au        11.6800000000        5.0575880000        0.0000000000
 Au         5.8400000000        5.0575880000        0.0000000000
 Au         8.7600000000        5.0575880000        0.0000000000
 Au         1.4600000000        0.8429310000        2.3841700000
 Au        10.2200000000        0.8429310000        2.3841700000
 Au         5.8400000000        8.4293140000        2.3841700000
 Au        14.6000000000        8.4293140000        2.3841700000
 Au         4.3800000000        0.8429310000        2.3841700000
 Au         8.7600000000        8.4293140000        2.3841700000
 Au         7.3000000000        0.8429310000        2.3841700000
 Au        11.6800000000        8.4293140000        2.3841700000
 Au         2.9200000000        3.3717260000        2.3841700000
 Au        11.6800000000        3.3717260000        2.3841700000
 Au         5.8400000000        3.3717260000        2.3841700000
 Au         8.7600000000        3.3717260000        2.3841700000
 Au         4.3800000000        5.9005200000        2.3841700000
 Au        13.1400000000        5.9005200000        2.3841700000
 Au         7.3000000000        5.9005200000        2.3841700000
 Au        10.2200000000        5.9005200000        2.3841700000
 Au         8.7600000000        1.6858630000        4.7683400000
 Au        13.1400000000        9.2722450000        4.7683400000
 Au         2.9200000000        1.6858630000        4.7683400000
 Au        11.6800000000        1.6858630000        4.7683400000
 Au         7.3000000000        9.2722450000        4.7683400000
 Au        16.0599990000        9.2722450000        4.7683400000
 Au         5.8400000000        1.6858630000        4.7683400000
 Au        10.2200000000        9.2722450000        4.7683400000
 Au        10.2200000000        4.2146570000        4.7683400000
 Au         4.3800000000        4.2146570000        4.7683400000
 Au        13.1400000000        4.2146570000        4.7683400000
 Au         7.3000000000        4.2146570000        4.7683400000
 Au        11.6800000000        6.7434510000        4.7683400000
 Au         5.8400000000        6.7434510000        4.7683400000
 Au        14.6000000000        6.7434510000        4.7683400000
 Au         8.7600000000        6.7434510000        4.7683400000
  C         9.4070741515        6.2651809781        9.4582744892
  C         9.8269407512        7.0614165785       10.5797411147
  C         9.4319931952        6.7987066904       11.8497927959
  C         9.1883066362        5.7621988770       15.9728903444
  C         7.7535225314        6.2943801487       15.7820817497
  C         7.1449099339        6.6481412962       17.1549019067
  C         5.5906631039        6.0240435288       20.1027191192
  C         9.7315335973        6.4973927898        8.1562111964
  C         6.0617937048        6.2041165521       21.3597815229
  C         6.9737985827        5.2999080384       22.0056969087
  C         7.5733873047        5.4728314187       23.2181364080
  C         6.6760786243        3.9287656166       15.4755799288
  C         7.3333136231        2.8740371473       14.9538772250
  C         5.6779765647        3.7441385251       16.5464272800
  H         8.7492703041        5.4177617841        9.6790583956
  H        10.3742452699        7.3266054981        7.8528538683
  S         9.0593690881        5.4631946311        6.9235827618
  H        10.4735512066        7.9232104166       10.3828683037
  H         5.7444955898        7.0862103301       21.9257537002
  H         7.2271727555        4.3822396954       21.4646417093
  S         7.4075607833        6.9382445140       24.1597737132
  H         8.2499836007        4.7111528067       23.6087954286
  C         9.8046285299        7.5905927316       13.0609654366
  C         4.6576271564        6.9720319138       19.4144956319
  C         5.7346191049        2.8404058756       17.5380905502
  H         4.8214454124        4.4267602289       16.5146266230
  H         6.5896522606        2.1721478926       17.6543672697
  H         4.9302230238        2.7494939215       18.2681203116
  H         5.9168448044        5.1389129778       19.5463613783
  H         8.7821263954        5.9304170954       12.0059768326
  H         7.1360770637        1.8568806466       15.2935409465
  H         8.0661446077        2.9974791512       14.1559444455
  C        10.6768512957        6.8148357792       14.0798487798
  C         5.8241166645        7.4259531229       17.0951746107
  H         8.8835695851        7.9382124582       13.5594190524
  H        10.3512379987        8.4947808466       12.7508972974
  H         7.8800685309        7.2636054257       17.7008550203
  H         7.0289718757        5.7286469996       17.7472295327
  C         5.3136893737        7.9805716853       18.4342433074
  C        10.0753638434        5.5533402118       14.7310012846
  H         4.1226968645        7.5540997575       20.1810830710
  H         3.8930642122        6.4002510424       18.8610005293
  H         6.1313843066        8.5027706134       18.9575615229
  H         4.5508732030        8.7452753855       18.2167312066
  H         5.9639598029        8.2798954871       16.4095610015
  H         5.0297833834        6.8097144394       16.6418165607
  H         9.7176768983        6.4455990519       16.6589416227
  H         9.1176236499        4.8001083939       16.5070958989
  H        10.9790076594        7.5166721437       14.8753168883
  H        11.6032702597        6.5280860812       13.5575904080
  H         9.5502545947        4.9497417872       13.9746809721
  H        10.9207338486        4.9243636694       15.0525645919
  C         6.8747794125        5.3318572134       14.9325740486
  H         5.8856039068        5.7973183128       14.7906812014
  H         7.3164137651        5.2567416677       13.9286560706
  H         7.8015336711        7.2364596665       15.2069881905
 Au         8.7600020000        1.6858630000       26.3191390000
 Au        13.1400000000        9.2722460000       26.3191390000
 Au         2.9200000000        1.6858630000       26.3191390000
 Au        11.6800000000        1.6858630000       26.3191390000
 Au         7.3000000000        9.2722460000       26.3191390000
 Au        16.0599990000        9.2722460000       26.3191390000
 Au         5.8400010000        1.6858630000       26.3191390000
 Au        10.2200000000        9.2722460000       26.3191390000
 Au        10.2200010000        4.2146570000       26.3191390000
 Au         4.3800000000        4.2146570000       26.3191390000
 Au        13.1400000000        4.2146570000       26.3191390000
 Au         7.3000000000        4.2146570000       26.3191390000
 Au        11.6800000000        6.7434510000       26.3191390000
 Au         5.8400000000        6.7434510000       26.3191390000
 Au        14.6000000000        6.7434510000       26.3191390000
 Au         8.7600000000        6.7434510000       26.3191390000
 Au         1.4600000000        0.8429310000       28.7033100000
 Au        10.2200000000        0.8429310000       28.7033100000
 Au         5.8400010000        8.4293140000       28.7033100000
 Au        14.6000000000        8.4293140000       28.7033100000
 Au         4.3800000000        0.8429310000       28.7033100000
 Au         8.7600000000        8.4293140000       28.7033100000
 Au         7.3000010000        0.8429310000       28.7033100000
 Au        11.6800000000        8.4293140000       28.7033100000
 Au         2.9200000000        3.3717260000       28.7033100000
 Au        11.6800010000        3.3717260000       28.7033100000
 Au         5.8400000000        3.3717260000       28.7033100000
 Au         8.7600000000        3.3717260000       28.7033100000
 Au         4.3800000000        5.9005200000       28.7033100000
 Au        13.1400000000        5.9005200000       28.7033100000
 Au         7.3000000000        5.9005200000       28.7033100000
 Au        10.2200000000        5.9005200000       28.7033100000
 Au         0.0000000000        0.0000000000       31.0874810000
 Au         8.7600000000        0.0000000000       31.0874810000
 Au         4.3800000000        7.5863820000       31.0874810000
 Au        13.1399990000        7.5863820000       31.0874810000
 Au         2.9200000000        0.0000000000       31.0874810000
 Au         7.3000000000        7.5863820000       31.0874810000
 Au         5.8400000000        0.0000000000       31.0874810000
 Au        10.2200000000        7.5863820000       31.0874810000
 Au         1.4600000000        2.5287940000       31.0874810000
 Au        10.2200000000        2.5287940000       31.0874810000
 Au         4.3800000000        2.5287940000       31.0874810000
 Au         7.3000000000        2.5287940000       31.0874810000
 Au         2.9200000000        5.0575880000       31.0874810000
 Au        11.6800000000        5.0575880000       31.0874810000
 Au         5.8400000000        5.0575880000       31.0874810000
 Au         8.7600000000        5.0575880000       31.0874810000