      68
 i =      401, E =     -1091.9988585461
Au    0.0000000000    0.0000000000    21.457530064    L0
Au    2.9200000000    0.0000000000    21.457530064    L0
Au    5.8400000000    0.0000000000    21.457530064    L0
Au    1.4600000000    2.5287941680    21.457530064    L0
Au    4.3800000000    2.5287941680    21.457530064    L0
Au    7.3000000000    2.5287941680    21.457530064    L0
Au    2.9200000000    5.0575883360    21.457530064    L0
Au    5.8400000000    5.0575883360    21.457530064    L0
Au    8.7600000000    5.0575883360    21.457530064    L0
Au    1.4600000000    0.8429312920    23.841700136    L0
Au    4.3800000000    0.8429312920    23.841700136    L0
Au    7.3000000000    0.8429312920    23.841700136    L0
Au    2.9200000000    3.3717254600    23.841700136    L0
Au    5.8400000000    3.3717254600    23.841700136    L0
Au    8.7600000000    3.3717254600    23.841700136    L0
Au    4.3800000000    5.9005196280    23.841700136    L0
Au    7.3000000000    5.9005196280    23.841700136    L0
Au    10.2200000000    5.9005196280    23.841700136    L0
Au    0.0000000000    1.6858628760    26.225870208    L0
Au    2.9200000000    1.6858628760    26.225870208    L0
Au    5.8400000000    1.6858628760    26.225870208    L0
Au    1.4600000000    4.2146570440    26.225870208    L0
Au    4.3800000000    4.2146570440    26.225870208    L0
Au    7.3000000000    4.2146570440    26.225870208    L0
Au    2.9200000000    6.7434512120    26.225870208    L0
Au    5.8400000000    6.7434512120    26.225870208    L0
Au    8.7600000000    6.7434512120    26.225870208    L0
C    6.4101570825    3.7013164220    29.236969023100002    S
C    7.4864128118    2.9127237638    29.7425558533    S
C    8.5697997013    3.5674758479    30.3555835718    S
C    8.6106087683    4.9545949520    30.4978846576    S
C    6.4524269189    5.0979520095    29.408104287500002    S
C    7.5295653721    5.7201373105    30.0320406538    S
C    9.8263551858    5.6201537424    31.098200426200002    S
N    10.1400858888    5.0886802285    32.4322216067    S
H    9.6825928244    6.7193432021    31.0977284532    S
H    10.7014769817    5.4220446166    30.4548043458    S
C    11.3285029983    5.6952201570    33.0202672828    S
H    9.3331866098    5.2413543728    33.049030713    S
H    9.4063872504    2.9710960403    30.726219261    S
S    5.0206595437    2.9206107589    28.4647674211    S
H    5.6234995233    5.6926059691    29.0222187765    S
H    7.5478948066    6.8067068871    30.1309830846    S
N    7.4621345790    1.5289729545    29.660487915    S
H    6.8538472602    1.1445758179    28.9320736732    S
H    8.3770695404    1.0795551395    29.680537601399998    S
C    12.9015068681    5.5258839017    35.1510045912    S
C    12.5815638410    6.0463033968    36.4330022926    S
C    13.4020245523    2.9692995799    37.3553951959    S
C    13.2657697768    5.2961289228    37.4943606359    S
C    12.9979562609    3.1702170762    35.0439484524    S
C    13.9790665823    4.2353739555    36.8684241372    S
C    11.5958717469    5.1145906024    34.3903924192    S
C    13.7018500790    4.3497635364    35.4456180072    S
C    11.1557608691    5.9536562154    36.6666050939    S
C    12.2556603974    4.7017724101    38.352332739800005    S
C    12.8249431232    2.3017039332    36.2263872287    S
C    11.7258608886    3.5675006406    34.535361856    S
C    10.5547388525    5.3334025760    35.5442874274    S
C    10.9589710691    5.1255159658    37.8710049592    S
C    12.3582845978    3.2523305590    38.3356355278    S
C    11.4056630998    2.2111158071    36.4617545861    S
C    10.7440429282    3.0019677496    35.4149111898    S
C    10.0289724055    4.0686597154    36.0394385536    S
C    10.2560233719    3.9539589989    37.4707764502    S
C    11.1041926038    2.7828801365    37.745740909700004    S
H    12.1876743656    5.4711709166    32.3673629793    S
H    11.2754208369    6.8009760614    33.1034318496    S
