41
 i =      314, E =     -1091.9992201778
C   -6.747331294937974   -6.37023055485367   3.9275979002999213
C   -6.618008091354115   -7.368621917332752   4.937860592348861
C   -6.3659207456570694   -6.958928791569744   6.262125681282325
C   -6.238866252545854   -5.615451278857397   6.612490186565745
C   -6.653196341397019   -5.015145340020694   4.301288913936732
C   -6.399937586095386   -4.6372209797695385   5.617581069006731
C   -5.918799941534912   -5.216698559802318   8.031240026167861
N   -7.1398712120252075   -4.99717206730968   8.828041444192511
H   -5.271269448933278   -4.316057192488086   8.022342665748297
H   -5.333829599814108   -6.0165494507212856   8.514390879380585
C   -6.876928742269981   -4.539459932220571   10.191676064162316
H   -7.737030074950926   -4.32252238322783   8.343984836947529
H   -6.2408141971787225   -7.725768460930884   7.030195257359866
S   -7.0614088745297945   -6.8326476138328   2.246930249169028
H   -6.748507445455489   -4.257639646395859   3.5225656084757273
H   -6.279547118062628   -3.5806501838719975   5.86356457816393
N   -6.757958514210129   -8.715543354022067   4.637610288831588
H   -6.5927773394299845   -8.949213299135028   3.653487875893971
H   -6.261014701596197   -9.346269493371013   5.2666517915074476
C   -6.502257416105896   -5.388532738071685   12.680706210335432
C   -7.568800985253057   -5.9219896347305365   13.490060120644104
C   -5.3982684808660535   -8.335879303632623   13.916548093926181
C   -7.06141274828786   -6.832652228551231   14.51171193276657
C   -4.8440676153788464   -6.9533295752906685   12.08325398164828
C   -5.6598164323191735   -6.951365071607707   14.290621803386138
C   -6.773396006093012   -5.699815631399775   11.166702376839595
C   -5.350953130831178   -6.108237132544016   13.132637015998519
C   -8.505875347775508   -6.6434947338664525   12.675773292659017
C   -7.660150355848565   -8.150032151095756   14.2902325295728
C   -4.859575554007958   -8.344409312941188   12.57893361578674
C   -5.706859948517652   -6.823147976828658   10.96184363253304
C   -8.008741766574735   -6.638285395421501   11.341832815178684
C   -8.567871268019982   -8.031040104188603   13.180162945736482
C   -6.620959780026302   -9.122854847002195   13.980010279020851
C   -5.7886608148999095   -9.062021541900087   11.766216449205416
C   -6.316587337590528   -8.122502040040983   10.782817267318318
C   -7.72309883877909   -8.006697248162643   11.003801729297688
C   -8.06446177094697   -8.872291682064729   12.13599186459718
C   -6.877763005001837   -9.560328024007086   12.604145074306226
H   -5.9599191976999   -3.9213318964379593   10.265930642848776
H   -7.710232235717974   -3.9006729287828095   10.518572471136107
