     250
 i =       71, E =     -1888.0436785968
 Au         0.0000000000        0.0000000000        0.0000000000 L3
 Au         2.9200000000        0.0000000000        0.0000000000 L3
 Au         5.8400000000        0.0000000000        0.0000000000 L3
 Au         1.4600000000        2.5287941680        0.0000000000 L3
 Au         4.3800000000        2.5287941680        0.0000000000 L3
 Au         7.3000000000        2.5287941680        0.0000000000 L3
 Au         2.9200000000        5.0575883360        0.0000000000 L3
 Au         5.8400000000        5.0575883360        0.0000000000 L3
 Au         8.7600000000        5.0575883360        0.0000000000 L3
 Au         1.4600000000        0.8429312920        2.3841700720 L3
 Au         4.3800000000        0.8429312920        2.3841700720 L3
 Au         7.3000000000        0.8429312920        2.3841700720 L3
 Au         2.9200000000        3.3717254600        2.3841700720 L3
 Au         5.8400000000        3.3717254600        2.3841700720 L3
 Au         8.7600000000        3.3717254600        2.3841700720 L3
 Au         4.3800000000        5.9005196280        2.3841700720 L3
 Au         7.3000000000        5.9005196280        2.3841700720 L3
 Au        10.2200000000        5.9005196280        2.3841700720 L3
 Au         0.0000000000        1.6858628760        4.7683401440 L3
 Au         2.9200000000        1.6858628760        4.7683401440 L3
 Au         5.8400000000        1.6858628760        4.7683401440 L3
 Au         1.4600000000        4.2146570440        4.7683401440 L3
 Au         4.3800000000        4.2146570440        4.7683401440 L3
 Au         7.3000000000        4.2146570440        4.7683401440 L3
 Au         2.9200000000        6.7434512120        4.7683401440 L3
 Au         5.8400000000        6.7434512120        4.7683401440 L3
 Au         8.7600000000        6.7434512120        4.7683401440 L3
 Au         0.0000000000        0.0000000000        7.1525099240 L2
 Au         2.9200000000        0.0000000000        7.1525099240 L2
 Au         5.8400000000        0.0000000000        7.1525099240 L2
 Au         1.4600000000        2.5287941680        7.1525099240 L2
 Au         4.3800000000        2.5287941680        7.1525099240 L2
 Au         7.3000000000        2.5287941680        7.1525099240 L2
 Au         2.9200000000        5.0575883360        7.1525099240 L2
 Au         5.8400000000        5.0575883360        7.1525099240 L2
 Au         8.7600000000        5.0575883360        7.1525099240 L2
 Au         1.4600000000        0.8429312920        9.5366799960 L2
 Au         4.3800000000        0.8429312920        9.5366799960 L2
 Au         7.3000000000        0.8429312920        9.5366799960 L2
 Au         2.9200000000        3.3717254600        9.5366799960 L2
 Au         5.8400000000        3.3717254600        9.5366799960 L2
 Au         8.7600000000        3.3717254600        9.5366799960 L2
 Au         4.3800000000        5.9005196280        9.5366799960 L2
 Au         7.3000000000        5.9005196280        9.5366799960 L2
 Au        10.2200000000        5.9005196280        9.5366799960 L2
 Au         0.0000000000        1.6858628760       11.9208500680 L2
 Au         2.9200000000        1.6858628760       11.9208500680 L2
 Au         5.8400000000        1.6858628760       11.9208500680 L2
 Au         1.4600000000        4.2146570440       11.9208500680 L2
 Au         4.3800000000        4.2146570440       11.9208500680 L2
 Au         7.3000000000        4.2146570440       11.9208500680 L2
 Au         2.9200000000        6.7434512120       11.9208500680 L2
 Au         5.8400000000        6.7434512120       11.9208500680 L2
 Au         8.7600000000        6.7434512120       11.9208500680 L2
 Au         0.0000000000        0.0000000000       14.3050198480 L1
 Au         2.9200000000        0.0000000000       14.3050198480 L1
 Au         5.8400000000        0.0000000000       14.3050198480 L1
 Au         1.4600000000        2.5287941680       14.3050198480 L1
 Au         4.3800000000        2.5287941680       14.3050198480 L1
 Au         7.3000000000        2.5287941680       14.3050198480 L1
 Au         2.9200000000        5.0575883360       14.3050198480 L1
 Au         5.8400000000        5.0575883360       14.3050198480 L1
 Au         8.7600000000        5.0575883360       14.3050198480 L1
 Au         1.4600000000        0.8429312920       16.6891899200 L1
 Au         4.3800000000        0.8429312920       16.6891899200 L1
 Au         7.3000000000        0.8429312920       16.6891899200 L1
 Au         2.9200000000        3.3717254600       16.6891899200 L1
 Au         5.8400000000        3.3717254600       16.6891899200 L1
 Au         8.7600000000        3.3717254600       16.6891899200 L1
 Au         4.3800000000        5.9005196280       16.6891899200 L1
 Au         7.3000000000        5.9005196280       16.6891899200 L1
 Au        10.2200000000        5.9005196280       16.6891899200 L1
 Au         0.0000000000        1.6858628760       19.0733599920 L1
 Au         2.9200000000        1.6858628760       19.0733599920 L1
 Au         5.8400000000        1.6858628760       19.0733599920 L1
 Au         1.4600000000        4.2146570440       19.0733599920 L1
 Au         4.3800000000        4.2146570440       19.0733599920 L1
 Au         7.3000000000        4.2146570440       19.0733599920 L1
 Au         2.9200000000        6.7434512120       19.0733599920 L1
 Au         5.8400000000        6.7434512120       19.0733599920 L1
 Au         8.7600000000        6.7434512120       19.0733599920 L1
Au    0.0000000000    0.0000000000    21.457530064    L0
Au    2.9200000000    0.0000000000    21.457530064    L0
Au    5.8400000000    0.0000000000    21.457530064    L0
Au    1.4600000000    2.5287941680    21.457530064    L0
Au    4.3800000000    2.5287941680    21.457530064    L0
Au    7.3000000000    2.5287941680    21.457530064    L0
Au    2.9200000000    5.0575883360    21.457530064    L0
Au    5.8400000000    5.0575883360    21.457530064    L0
Au    8.7600000000    5.0575883360    21.457530064    L0
Au    1.4600000000    0.8429312920    23.841700136    L0
Au    4.3800000000    0.8429312920    23.841700136    L0
Au    7.3000000000    0.8429312920    23.841700136    L0
Au    2.9200000000    3.3717254600    23.841700136    L0
Au    5.8400000000    3.3717254600    23.841700136    L0
Au    8.7600000000    3.3717254600    23.841700136    L0
Au    4.3800000000    5.9005196280    23.841700136    L0
Au    7.3000000000    5.9005196280    23.841700136    L0
Au    10.2200000000    5.9005196280    23.841700136    L0
Au    0.0000000000    1.6858628760    26.225870208    L0
Au    2.9200000000    1.6858628760    26.225870208    L0
Au    5.8400000000    1.6858628760    26.225870208    L0
Au    1.4600000000    4.2146570440    26.225870208    L0
Au    4.3800000000    4.2146570440    26.225870208    L0
Au    7.3000000000    4.2146570440    26.225870208    L0
Au    2.9200000000    6.7434512120    26.225870208    L0
Au    5.8400000000    6.7434512120    26.225870208    L0
Au    8.7600000000    6.7434512120    26.225870208    L0
C    3.8044999263    2.3657874531    39.0334981504    S
C    3.7627073314    3.6238766531    38.408736600400005    S
C    4.0289648721    3.7683491445    37.048050894    S
C    4.3509713696    2.6584882413    36.2411743825    S
C    4.1691050911    1.2660189991    38.242643953    S
C    4.4357781433    1.4067948648    36.8779625481    S
C    4.5584373557    2.8090695451    34.7769802303    S
H    3.9873136898    4.7622509369    36.5999112038    S
C    3.3528860954    2.2003921992    40.4744755638    S
H    4.2049973658    0.2712655477    38.6923402849    S
H    4.6655573261    0.5184944789    36.2874285924    S
H    3.4906969375    4.5066536678    38.9925768979    S
C    3.7892025689    3.7187784891    34.0266353222    S
C    3.9927298274    3.8858757174    32.6562509217    S
C    4.9740662371    3.1561491086    31.9668764969    S
C    5.7285218963    2.2314740238    32.7092917474    S
C    5.5257958347    2.0596791413    34.0799310951    S
H    3.3805621131    4.6068681236    32.1100620538    S
H    3.0073465096    4.2961139590    34.5224088394    S
H    6.5130477007    1.6555524842    32.212955903    S
H    6.1593853216    1.3602149639    34.6277409075    S
C    5.2364505154    3.3967519446    30.492964674    S
C    4.2991993057    2.7730957911    41.5524908346    S
H    3.1691120632    1.1378283837    40.6900578782    S
H    2.3779510719    2.7047688745    40.5774543352    S
H    5.0990504915    2.0742090880    41.8286931471    S
H    4.7584755756    3.7170403643    41.2271256193    S
C    4.6326349711    2.3435136546    29.5189897188    S
H    6.3230569441    3.4330175415    30.319335734200003    S
H    4.8585542959    4.3940904745    30.223317342199998    S
H    5.4121608282    1.8489387100    28.9218774999    S
H    4.0797996215    1.5638254775    30.0617987723    S
S    3.2866552130    3.2095546353    43.047668513800005    S
S    3.3936889367    3.0946561975    28.3692239352    S
Au    8.7600000000    6.7434512120    45.164560064    R0
Au    5.8400000000    6.7434512120    45.164560064    R0
Au    2.9200000000    6.7434512120    45.164560064    R0
Au    7.3000000000    4.2146570440    45.164560064    R0
Au    4.3800000000    4.2146570440    45.164560064    R0
Au    1.4600000000    4.2146570440    45.164560064    R0
Au    5.8400000000    1.6858628760    45.164560064    R0
Au    2.9200000000    1.6858628760    45.164560064    R0
Au    0.0000000000    1.6858628760    45.164560064    R0
Au    10.2200000000    5.9005196280    47.548730136    R0
Au    7.3000000000    5.9005196280    47.548730136    R0
Au    4.3800000000    5.9005196280    47.548730136    R0
Au    8.7600000000    3.3717254600    47.548730136    R0
Au    5.8400000000    3.3717254600    47.548730136    R0
Au    2.9200000000    3.3717254600    47.548730136    R0
Au    7.3000000000    0.8429312920    47.548730136    R0
Au    4.3800000000    0.8429312920    47.548730136    R0
Au    1.4600000000    0.8429312920    47.548730136    R0
Au    8.7600000000    5.0575883360    49.932900208    R0
Au    5.8400000000    5.0575883360    49.932900208    R0
Au    2.9200000000    5.0575883360    49.932900208    R0
Au    7.3000000000    2.5287941680    49.932900208    R0
Au    4.3800000000    2.5287941680    49.932900208    R0
Au    1.4600000000    2.5287941680    49.932900208    R0
Au    5.8400000000    0.0000000000    49.932900208    R0
Au    2.9200000000    0.0000000000    49.932900208    R0
Au    0.0000000000    0.0000000000    49.932900208    R0
Au    8.7600000000    6.7434512120    52.31707028    R1
Au    5.8400000000    6.7434512120    52.31707028    R1
Au    2.9200000000    6.7434512120    52.31707028    R1
Au    7.3000000000    4.2146570440    52.31707028    R1
Au    4.3800000000    4.2146570440    52.31707028    R1
Au    1.4600000000    4.2146570440    52.31707028    R1
Au    5.8400000000    1.6858628760    52.31707028    R1
Au    2.9200000000    1.6858628760    52.31707028    R1
Au    0.0000000000    1.6858628760    52.31707028    R1
Au    10.2200000000    5.9005196280    54.701240352000006    R1
Au    7.3000000000    5.9005196280    54.701240352000006    R1
Au    4.3800000000    5.9005196280    54.701240352000006    R1
Au    8.7600000000    3.3717254600    54.701240352000006    R1
Au    5.8400000000    3.3717254600    54.701240352000006    R1
Au    2.9200000000    3.3717254600    54.701240352000006    R1
Au    7.3000000000    0.8429312920    54.701240352000006    R1
Au    4.3800000000    0.8429312920    54.701240352000006    R1
Au    1.4600000000    0.8429312920    54.701240352000006    R1
Au    8.7600000000    5.0575883360    57.085410424    R1
Au    5.8400000000    5.0575883360    57.085410424    R1
Au    2.9200000000    5.0575883360    57.085410424    R1
Au    7.3000000000    2.5287941680    57.085410424    R1
Au    4.3800000000    2.5287941680    57.085410424    R1
Au    1.4600000000    2.5287941680    57.085410424    R1
Au    5.8400000000    0.0000000000    57.085410424    R1
Au    2.9200000000    0.0000000000    57.085410424    R1
Au    0.0000000000    0.0000000000    57.085410424    R1
Au    8.7600000000    6.7434512120    59.469580204    R2
Au    5.8400000000    6.7434512120    59.469580204    R2
Au    2.9200000000    6.7434512120    59.469580204    R2
Au    7.3000000000    4.2146570440    59.469580204    R2
Au    4.3800000000    4.2146570440    59.469580204    R2
Au    1.4600000000    4.2146570440    59.469580204    R2
Au    5.8400000000    1.6858628760    59.469580204    R2
Au    2.9200000000    1.6858628760    59.469580204    R2
Au    0.0000000000    1.6858628760    59.469580204    R2
Au    10.2200000000    5.9005196280    61.85375027600001    R2
Au    7.3000000000    5.9005196280    61.85375027600001    R2
Au    4.3800000000    5.9005196280    61.85375027600001    R2
Au    8.7600000000    3.3717254600    61.85375027600001    R2
Au    5.8400000000    3.3717254600    61.85375027600001    R2
Au    2.9200000000    3.3717254600    61.85375027600001    R2
Au    7.3000000000    0.8429312920    61.85375027600001    R2
Au    4.3800000000    0.8429312920    61.85375027600001    R2
Au    1.4600000000    0.8429312920    61.85375027600001    R2
Au    8.7600000000    5.0575883360    64.237920348    R2
Au    5.8400000000    5.0575883360    64.237920348    R2
Au    2.9200000000    5.0575883360    64.237920348    R2
Au    7.3000000000    2.5287941680    64.237920348    R2
Au    4.3800000000    2.5287941680    64.237920348    R2
Au    1.4600000000    2.5287941680    64.237920348    R2
Au    5.8400000000    0.0000000000    64.237920348    R2
Au    2.9200000000    0.0000000000    64.237920348    R2
Au    0.0000000000    0.0000000000    64.237920348    R2
Au    8.7600000000    6.7434512120    66.622090128    R3
Au    5.8400000000    6.7434512120    66.622090128    R3
Au    2.9200000000    6.7434512120    66.622090128    R3
Au    7.3000000000    4.2146570440    66.622090128    R3
Au    4.3800000000    4.2146570440    66.622090128    R3
Au    1.4600000000    4.2146570440    66.622090128    R3
Au    5.8400000000    1.6858628760    66.622090128    R3
Au    2.9200000000    1.6858628760    66.622090128    R3
Au    0.0000000000    1.6858628760    66.622090128    R3
Au    10.2200000000    5.9005196280    69.00626020000001    R3
Au    7.3000000000    5.9005196280    69.00626020000001    R3
Au    4.3800000000    5.9005196280    69.00626020000001    R3
Au    8.7600000000    3.3717254600    69.00626020000001    R3
Au    5.8400000000    3.3717254600    69.00626020000001    R3
Au    2.9200000000    3.3717254600    69.00626020000001    R3
Au    7.3000000000    0.8429312920    69.00626020000001    R3
Au    4.3800000000    0.8429312920    69.00626020000001    R3
Au    1.4600000000    0.8429312920    69.00626020000001    R3
Au    8.7600000000    5.0575883360    71.390430272    R3
Au    5.8400000000    5.0575883360    71.390430272    R3
Au    2.9200000000    5.0575883360    71.390430272    R3
Au    7.3000000000    2.5287941680    71.390430272    R3
Au    4.3800000000    2.5287941680    71.390430272    R3
Au    1.4600000000    2.5287941680    71.390430272    R3
Au    5.8400000000    0.0000000000    71.390430272    R3
Au    2.9200000000    0.0000000000    71.390430272    R3
Au    0.0000000000    0.0000000000    71.390430272    R3
