     248
 i =       21, E =     -1959.6943501172
 Au         0.0000000000        0.0000000000        0.0000000000 L3
 Au         2.9200000000        0.0000000000        0.0000000000 L3
 Au         5.8400000000        0.0000000000        0.0000000000 L3
 Au         1.4600000000        2.5287941680        0.0000000000 L3
 Au         4.3800000000        2.5287941680        0.0000000000 L3
 Au         7.3000000000        2.5287941680        0.0000000000 L3
 Au         2.9200000000        5.0575883360        0.0000000000 L3
 Au         5.8400000000        5.0575883360        0.0000000000 L3
 Au         8.7600000000        5.0575883360        0.0000000000 L3
 Au         1.4600000000        0.8429312920        2.3841700720 L3
 Au         4.3800000000        0.8429312920        2.3841700720 L3
 Au         7.3000000000        0.8429312920        2.3841700720 L3
 Au         2.9200000000        3.3717254600        2.3841700720 L3
 Au         5.8400000000        3.3717254600        2.3841700720 L3
 Au         8.7600000000        3.3717254600        2.3841700720 L3
 Au         4.3800000000        5.9005196280        2.3841700720 L3
 Au         7.3000000000        5.9005196280        2.3841700720 L3
 Au        10.2200000000        5.9005196280        2.3841700720 L3
 Au         0.0000000000        1.6858628760        4.7683401440 L3
 Au         2.9200000000        1.6858628760        4.7683401440 L3
 Au         5.8400000000        1.6858628760        4.7683401440 L3
 Au         1.4600000000        4.2146570440        4.7683401440 L3
 Au         4.3800000000        4.2146570440        4.7683401440 L3
 Au         7.3000000000        4.2146570440        4.7683401440 L3
 Au         2.9200000000        6.7434512120        4.7683401440 L3
 Au         5.8400000000        6.7434512120        4.7683401440 L3
 Au         8.7600000000        6.7434512120        4.7683401440 L3
 Au         0.0000000000        0.0000000000        7.1525099240 L2
 Au         2.9200000000        0.0000000000        7.1525099240 L2
 Au         5.8400000000        0.0000000000        7.1525099240 L2
 Au         1.4600000000        2.5287941680        7.1525099240 L2
 Au         4.3800000000        2.5287941680        7.1525099240 L2
 Au         7.3000000000        2.5287941680        7.1525099240 L2
 Au         2.9200000000        5.0575883360        7.1525099240 L2
 Au         5.8400000000        5.0575883360        7.1525099240 L2
 Au         8.7600000000        5.0575883360        7.1525099240 L2
 Au         1.4600000000        0.8429312920        9.5366799960 L2
 Au         4.3800000000        0.8429312920        9.5366799960 L2
 Au         7.3000000000        0.8429312920        9.5366799960 L2
 Au         2.9200000000        3.3717254600        9.5366799960 L2
 Au         5.8400000000        3.3717254600        9.5366799960 L2
 Au         8.7600000000        3.3717254600        9.5366799960 L2
 Au         4.3800000000        5.9005196280        9.5366799960 L2
 Au         7.3000000000        5.9005196280        9.5366799960 L2
 Au        10.2200000000        5.9005196280        9.5366799960 L2
 Au         0.0000000000        1.6858628760       11.9208500680 L2
 Au         2.9200000000        1.6858628760       11.9208500680 L2
 Au         5.8400000000        1.6858628760       11.9208500680 L2
 Au         1.4600000000        4.2146570440       11.9208500680 L2
 Au         4.3800000000        4.2146570440       11.9208500680 L2
 Au         7.3000000000        4.2146570440       11.9208500680 L2
 Au         2.9200000000        6.7434512120       11.9208500680 L2
 Au         5.8400000000        6.7434512120       11.9208500680 L2
 Au         8.7600000000        6.7434512120       11.9208500680 L2
 Au         0.0000000000        0.0000000000       14.3050198480 L1
 Au         2.9200000000        0.0000000000       14.3050198480 L1
 Au         5.8400000000        0.0000000000       14.3050198480 L1
 Au         1.4600000000        2.5287941680       14.3050198480 L1
 Au         4.3800000000        2.5287941680       14.3050198480 L1
 Au         7.3000000000        2.5287941680       14.3050198480 L1
 Au         2.9200000000        5.0575883360       14.3050198480 L1
 Au         5.8400000000        5.0575883360       14.3050198480 L1
 Au         8.7600000000        5.0575883360       14.3050198480 L1
 Au         1.4600000000        0.8429312920       16.6891899200 L1
 Au         4.3800000000        0.8429312920       16.6891899200 L1
 Au         7.3000000000        0.8429312920       16.6891899200 L1
 Au         2.9200000000        3.3717254600       16.6891899200 L1
 Au         5.8400000000        3.3717254600       16.6891899200 L1
 Au         8.7600000000        3.3717254600       16.6891899200 L1
 Au         4.3800000000        5.9005196280       16.6891899200 L1
 Au         7.3000000000        5.9005196280       16.6891899200 L1
 Au        10.2200000000        5.9005196280       16.6891899200 L1
 Au         0.0000000000        1.6858628760       19.0733599920 L1
 Au         2.9200000000        1.6858628760       19.0733599920 L1
 Au         5.8400000000        1.6858628760       19.0733599920 L1
 Au         1.4600000000        4.2146570440       19.0733599920 L1
 Au         4.3800000000        4.2146570440       19.0733599920 L1
 Au         7.3000000000        4.2146570440       19.0733599920 L1
 Au         2.9200000000        6.7434512120       19.0733599920 L1
 Au         5.8400000000        6.7434512120       19.0733599920 L1
 Au         8.7600000000        6.7434512120       19.0733599920 L1
Au    0.0000000000    0.0000000000    21.457530064    L0
Au    2.9200000000    0.0000000000    21.457530064    L0
Au    5.8400000000    0.0000000000    21.457530064    L0
Au    1.4600000000    2.5287941680    21.457530064    L0
Au    4.3800000000    2.5287941680    21.457530064    L0
Au    7.3000000000    2.5287941680    21.457530064    L0
Au    2.9200000000    5.0575883360    21.457530064    L0
Au    5.8400000000    5.0575883360    21.457530064    L0
Au    8.7600000000    5.0575883360    21.457530064    L0
Au    1.4600000000    0.8429312920    23.841700136    L0
Au    4.3800000000    0.8429312920    23.841700136    L0
Au    7.3000000000    0.8429312920    23.841700136    L0
Au    2.9200000000    3.3717254600    23.841700136    L0
Au    5.8400000000    3.3717254600    23.841700136    L0
Au    8.7600000000    3.3717254600    23.841700136    L0
Au    4.3800000000    5.9005196280    23.841700136    L0
Au    7.3000000000    5.9005196280    23.841700136    L0
Au    10.2200000000    5.9005196280    23.841700136    L0
Au    0.0000000000    1.6858628760    26.225870208    L0
Au    2.9200000000    1.6858628760    26.225870208    L0
Au    5.8400000000    1.6858628760    26.225870208    L0
Au    1.4600000000    4.2146570440    26.225870208    L0
Au    4.3800000000    4.2146570440    26.225870208    L0
Au    7.3000000000    4.2146570440    26.225870208    L0
Au    2.9200000000    6.7434512120    26.225870208    L0
Au    5.8400000000    6.7434512120    26.225870208    L0
Au    8.7600000000    6.7434512120    26.225870208    L0
C    6.1825356264    3.1375871013    29.5722734616    S
C    7.4300630550    3.0670901898    30.265391634300002    S
C    7.5507415229    2.1545639327    31.329727823    S
C    6.5061505563    1.3099928316    31.7014880936    S
C    5.1555534528    2.2404637479    29.9156554867    S
C    5.3075638902    1.3391092403    30.9654516008    S
C    6.6478158203    0.4360575656    32.9267391065    S
N    6.5107193240    1.2529573693    34.1458936335    S
H    5.9116471035    -0.3931594781    32.8797303021    S
H    7.6483808701    -0.0270230448    32.9506521108    S
C    6.6267180584    0.4960121721    35.3894981192    S
H    5.6036490189    1.7325740764    34.116979310299996    S
C    6.5372012358    1.3863932370    36.6161930105    S
H    7.6124023832    -0.0038482258    35.3810700706    S
H    5.8784197320    -0.3204292220    35.4858967847    S
C    6.7856130707    2.7658994376    36.5325293518    S
C    6.6887185366    3.5867415555    37.659862033799996    S
C    6.3338972363    3.0530828058    38.896321168200004    S
C    6.2108493282    0.8393864988    37.8640535537    S
C    6.1115064078    1.6775888352    38.974752272    S
H    8.4864180876    2.1284723401    31.893569532    S
H    6.8866021975    4.6554633797    37.57345722    S
S    5.9147215245    4.4561964375    28.4328822684    S
H    4.2240695855    2.2746970711    29.349286161000002    S
H    4.4945900363    0.6562171457    31.2180232883    S
H    6.2336873277    3.6695309940    39.7868957202    S
N    5.7358648710    1.1008388586    40.2789006302    S
O    5.9062401044    -0.1165882517    40.4618994178    S
O    5.2657563322    1.8909957214    41.128009995    S
N    8.4707564438    3.9221134390    29.9573786782    S
H    8.4479051850    4.3527470285    29.030411045    S
H    9.3997032755    3.6208727318    30.2444719061    S
H    6.0185671029    -0.2265127989    37.9853145044    S
H    7.0539355920    3.1854169172    35.5629528128    S
Au    8.7600000000    6.7434512120    43.89185992    R0
Au    5.8400000000    6.7434512120    43.89185992    R0
Au    2.9200000000    6.7434512120    43.89185992    R0
Au    7.3000000000    4.2146570440    43.89185992    R0
Au    4.3800000000    4.2146570440    43.89185992    R0
Au    1.4600000000    4.2146570440    43.89185992    R0
Au    5.8400000000    1.6858628760    43.89185992    R0
Au    2.9200000000    1.6858628760    43.89185992    R0
Au    0.0000000000    1.6858628760    43.89185992    R0
Au    10.2200000000    5.9005196280    46.276029992000005    R0
Au    7.3000000000    5.9005196280    46.276029992000005    R0
Au    4.3800000000    5.9005196280    46.276029992000005    R0
Au    8.7600000000    3.3717254600    46.276029992000005    R0
Au    5.8400000000    3.3717254600    46.276029992000005    R0
Au    2.9200000000    3.3717254600    46.276029992000005    R0
Au    7.3000000000    0.8429312920    46.276029992000005    R0
Au    4.3800000000    0.8429312920    46.276029992000005    R0
Au    1.4600000000    0.8429312920    46.276029992000005    R0
Au    8.7600000000    5.0575883360    48.660200064    R0
Au    5.8400000000    5.0575883360    48.660200064    R0
Au    2.9200000000    5.0575883360    48.660200064    R0
Au    7.3000000000    2.5287941680    48.660200064    R0
Au    4.3800000000    2.5287941680    48.660200064    R0
Au    1.4600000000    2.5287941680    48.660200064    R0
Au    5.8400000000    0.0000000000    48.660200064    R0
Au    2.9200000000    0.0000000000    48.660200064    R0
Au    0.0000000000    0.0000000000    48.660200064    R0
Au    8.7600000000    6.7434512120    50.244370136    R1
Au    5.8400000000    6.7434512120    50.244370136    R1
Au    2.9200000000    6.7434512120    50.244370136    R1
Au    7.3000000000    4.2146570440    50.244370136    R1
Au    4.3800000000    4.2146570440    50.244370136    R1
Au    1.4600000000    4.2146570440    50.244370136    R1
Au    5.8400000000    1.6858628760    50.244370136    R1
Au    2.9200000000    1.6858628760    50.244370136    R1
Au    0.0000000000    1.6858628760    50.244370136    R1
Au    10.2200000000    5.9005196280    52.628540208000004    R1
Au    7.3000000000    5.9005196280    52.628540208000004    R1
Au    4.3800000000    5.9005196280    52.628540208000004    R1
Au    8.7600000000    3.3717254600    52.628540208000004    R1
Au    5.8400000000    3.3717254600    52.628540208000004    R1
Au    2.9200000000    3.3717254600    52.628540208000004    R1
Au    7.3000000000    0.8429312920    52.628540208000004    R1
Au    4.3800000000    0.8429312920    52.628540208000004    R1
Au    1.4600000000    0.8429312920    52.628540208000004    R1
Au    8.7600000000    5.0575883360    55.01271028    R1
Au    5.8400000000    5.0575883360    55.01271028    R1
Au    2.9200000000    5.0575883360    55.01271028    R1
Au    7.3000000000    2.5287941680    55.01271028    R1
Au    4.3800000000    2.5287941680    55.01271028    R1
Au    1.4600000000    2.5287941680    55.01271028    R1
Au    5.8400000000    0.0000000000    55.01271028    R1
Au    2.9200000000    0.0000000000    55.01271028    R1
Au    0.0000000000    0.0000000000    55.01271028    R1
Au    8.7600000000    6.7434512120    57.39688006    R2
Au    5.8400000000    6.7434512120    57.39688006    R2
Au    2.9200000000    6.7434512120    57.39688006    R2
Au    7.3000000000    4.2146570440    57.39688006    R2
Au    4.3800000000    4.2146570440    57.39688006    R2
Au    1.4600000000    4.2146570440    57.39688006    R2
Au    5.8400000000    1.6858628760    57.39688006    R2
Au    2.9200000000    1.6858628760    57.39688006    R2
Au    0.0000000000    1.6858628760    57.39688006    R2
Au    10.2200000000    5.9005196280    59.781050132000004    R2
Au    7.3000000000    5.9005196280    59.781050132000004    R2
Au    4.3800000000    5.9005196280    59.781050132000004    R2
Au    8.7600000000    3.3717254600    59.781050132000004    R2
Au    5.8400000000    3.3717254600    59.781050132000004    R2
Au    2.9200000000    3.3717254600    59.781050132000004    R2
Au    7.3000000000    0.8429312920    59.781050132000004    R2
Au    4.3800000000    0.8429312920    59.781050132000004    R2
Au    1.4600000000    0.8429312920    59.781050132000004    R2
Au    8.7600000000    5.0575883360    62.165220204    R2
Au    5.8400000000    5.0575883360    62.165220204    R2
Au    2.9200000000    5.0575883360    62.165220204    R2
Au    7.3000000000    2.5287941680    62.165220204    R2
Au    4.3800000000    2.5287941680    62.165220204    R2
Au    1.4600000000    2.5287941680    62.165220204    R2
Au    5.8400000000    0.0000000000    62.165220204    R2
Au    2.9200000000    0.0000000000    62.165220204    R2
Au    0.0000000000    0.0000000000    62.165220204    R2
Au    8.7600000000    6.7434512120    64.54938998399999    R3
Au    5.8400000000    6.7434512120    64.54938998399999    R3
Au    2.9200000000    6.7434512120    64.54938998399999    R3
Au    7.3000000000    4.2146570440    64.54938998399999    R3
Au    4.3800000000    4.2146570440    64.54938998399999    R3
Au    1.4600000000    4.2146570440    64.54938998399999    R3
Au    5.8400000000    1.6858628760    64.54938998399999    R3
Au    2.9200000000    1.6858628760    64.54938998399999    R3
Au    0.0000000000    1.6858628760    64.54938998399999    R3
Au    10.2200000000    5.9005196280    66.933560056    R3
Au    7.3000000000    5.9005196280    66.933560056    R3
Au    4.3800000000    5.9005196280    66.933560056    R3
Au    8.7600000000    3.3717254600    66.933560056    R3
Au    5.8400000000    3.3717254600    66.933560056    R3
Au    2.9200000000    3.3717254600    66.933560056    R3
Au    7.3000000000    0.8429312920    66.933560056    R3
Au    4.3800000000    0.8429312920    66.933560056    R3
Au    1.4600000000    0.8429312920    66.933560056    R3
Au    8.7600000000    5.0575883360    69.317730128    R3
Au    5.8400000000    5.0575883360    69.317730128    R3
Au    2.9200000000    5.0575883360    69.317730128    R3
Au    7.3000000000    2.5287941680    69.317730128    R3
Au    4.3800000000    2.5287941680    69.317730128    R3
Au    1.4600000000    2.5287941680    69.317730128    R3
Au    5.8400000000    0.0000000000    69.317730128    R3
Au    2.9200000000    0.0000000000    69.317730128    R3
Au    0.0000000000    0.0000000000    69.317730128    R3
