81
	Energy:      42.9839396
Au    0.0000000000    0.0000000000    0.0000000000    L3
Au    2.9200000000    0.0000000000    0.0000000000    L3
Au    5.8400000000    0.0000000000    0.0000000000    L3
Au    1.4600000000    2.5287941680    0.0000000000    L3
Au    4.3800000000    2.5287941680    0.0000000000    L3
Au    7.3000000000    2.5287941680    0.0000000000    L3
Au    2.9200000000    5.0575883360    0.0000000000    L3
Au    5.8400000000    5.0575883360    0.0000000000    L3
Au    8.7600000000    5.0575883360    0.0000000000    L3
Au    1.4600000000    0.8429312920    2.3841700720    L3
Au    4.3800000000    0.8429312920    2.3841700720    L3
Au    7.3000000000    0.8429312920    2.3841700720    L3
Au    2.9200000000    3.3717254600    2.3841700720    L3
Au    5.8400000000    3.3717254600    2.3841700720    L3
Au    8.7600000000    3.3717254600    2.3841700720    L3
Au    4.3800000000    5.9005196280    2.3841700720    L3
Au    7.3000000000    5.9005196280    2.3841700720    L3
Au    10.2200000000    5.9005196280    2.3841700720    L3
Au    0.0000000000    1.6858628760    4.7683401440    L3
Au    2.9200000000    1.6858628760    4.7683401440    L3
Au    5.8400000000    1.6858628760    4.7683401440    L3
Au    1.4600000000    4.2146570440    4.7683401440    L3
Au    4.3800000000    4.2146570440    4.7683401440    L3
Au    7.3000000000    4.2146570440    4.7683401440    L3
Au    2.9200000000    6.7434512120    4.7683401440    L3
Au    5.8400000000    6.7434512120    4.7683401440    L3
Au    8.7600000000    6.7434512120    4.7683401440    L3
C    3.4073702039668845    3.4560973757541023    16.26996824572111    S    2    S
C    4.225686978793352    4.362184145670894    15.570325348500328    S    2    S
C    4.362191556812326    4.301351573589767    14.18155366661593    S    2    S
C    3.6950068444757056    3.3217141831710153    13.414150967844005    S    2    S
C    2.7770028924014776    2.4500884999934702    15.51392683074946    S    2    S
C    2.915147789949815    2.3859477214399463    14.126622362915311    S    2    S
C    3.785515401236574    3.2806959702190936    11.92500292125271    S    2    S
H    4.968585568482205    5.056891577906507    13.679370819213904    S    2    S
S    4.3388436238824095    2.727639638594277    18.867065140075894    S    2    S
H    2.1461948117195844    1.7169497277318095    16.021314817373614    S    2    S
H    2.4080010493544313    1.5880836072550237    13.58324743425789    S    2    S
H    4.734114289021773    5.157304311260203    16.119548581680398    S    2    S
C    4.953664005117626    3.66527991782635    11.234481732953894    S    2    S
C    5.049780545412398    3.5628129729242124    9.84423199038894    S    2    S
C    3.987629108497523    3.061719183236891    9.068124362446769    S    2    S
C    2.8027563932116966    2.7273558381701766    9.747589064956939    S    2    S
C    2.7057616255370283    2.828419627728627    11.136165460795478    S    2    S
H    5.987275367253239    3.8339012177891285    9.354976477516256    S    2    S
H    5.823269771480077    4.006542010734614    11.797188328011003    S    2    S
H    1.9501896443825233    2.350993272642545    9.179762186397927    S    2    S
H    1.7692050141110096    2.5504613581873903    11.620502715165017    S    2    S
S    3.683261967070295    4.198302577064525    6.468340144    S    2    S
C    3.1158891340552293    3.6206456822945032    17.742044260783288    S    2    S
H    2.1268994643491235    3.2155637443391574    17.986091378523575    S    2    S
H    3.1394245214370216    4.676995818130489    18.033418983463356    S    2    S
C    4.15526228946489    2.7651737258893174    7.596793975155796    S    2    S
H    3.535359207402826    1.9070392097423834    7.304657481453753    S    2    S
H    5.20182530788017    2.5313338335638456    7.365323856857974    S    2    S
Au    8.7600000000    6.7434512120    20.66707    R0
Au    5.8400000000    6.7434512120    20.66707    R0
Au    2.9200000000    6.7434512120    20.66707    R0
Au    7.3000000000    4.2146570440    20.66707    R0
Au    4.3800000000    4.2146570440    20.66707    R0
Au    1.4600000000    4.2146570440    20.66707    R0
Au    5.8400000000    1.6858628760    20.66707    R0
Au    2.9200000000    1.6858628760    20.66707    R0
Au    0.0000000000    1.6858628760    20.66707    R0
Au    10.2200000000    5.9005196280    23.051240072000002    R0
Au    7.3000000000    5.9005196280    23.051240072000002    R0
Au    4.3800000000    5.9005196280    23.051240072000002    R0
Au    8.7600000000    3.3717254600    23.051240072000002    R0
Au    5.8400000000    3.3717254600    23.051240072000002    R0
Au    2.9200000000    3.3717254600    23.051240072000002    R0
Au    7.3000000000    0.8429312920    23.051240072000002    R0
Au    4.3800000000    0.8429312920    23.051240072000002    R0
Au    1.4600000000    0.8429312920    23.051240072000002    R0
Au    8.7600000000    5.0575883360    25.435410144    R0
Au    5.8400000000    5.0575883360    25.435410144    R0
Au    2.9200000000    5.0575883360    25.435410144    R0
Au    7.3000000000    2.5287941680    25.435410144    R0
Au    4.3800000000    2.5287941680    25.435410144    R0
Au    1.4600000000    2.5287941680    25.435410144    R0
Au    5.8400000000    0.0000000000    25.435410144    R0
Au    2.9200000000    0.0000000000    25.435410144    R0
Au    0.0000000000    0.0000000000    25.435410144    R0
