     152
 i =      367, E =     -3405.8830196150
 Au         0.0000000000        0.0000000000        0.0000000000
 Au         8.7600000000        0.0000000000        0.0000000000
 Au         4.3800000000        7.5863820000        0.0000000000
 Au        13.1400000000        7.5863820000        0.0000000000
 Au         2.9200000000        0.0000000000        0.0000000000
 Au         7.3000000000        7.5863820000        0.0000000000
 Au         5.8400000000        0.0000000000        0.0000000000
 Au        10.2200000000        7.5863820000        0.0000000000
 Au         1.4600000000        2.5287940000        0.0000000000
 Au        10.2200000000        2.5287940000        0.0000000000
 Au         4.3800000000        2.5287940000        0.0000000000
 Au         7.3000000000        2.5287940000        0.0000000000
 Au         2.9200000000        5.0575880000        0.0000000000
 Au        11.6800000000        5.0575880000        0.0000000000
 Au         5.8400000000        5.0575880000        0.0000000000
 Au         8.7600000000        5.0575880000        0.0000000000
 Au         1.4600000000        0.8429310000        2.3841700000
 Au        10.2200000000        0.8429310000        2.3841700000
 Au         5.8400000000        8.4293140000        2.3841700000
 Au        14.6000000000        8.4293140000        2.3841700000
 Au         4.3800000000        0.8429310000        2.3841700000
 Au         8.7600000000        8.4293140000        2.3841700000
 Au         7.3000000000        0.8429310000        2.3841700000
 Au        11.6800000000        8.4293140000        2.3841700000
 Au         2.9200000000        3.3717260000        2.3841700000
 Au        11.6800000000        3.3717260000        2.3841700000
 Au         5.8400000000        3.3717260000        2.3841700000
 Au         8.7600000000        3.3717260000        2.3841700000
 Au         4.3800000000        5.9005200000        2.3841700000
 Au        13.1400000000        5.9005200000        2.3841700000
 Au         7.3000000000        5.9005200000        2.3841700000
 Au        10.2200000000        5.9005200000        2.3841700000
 Au         8.7600000000        1.6858630000        4.7683400000
 Au        13.1400000000        9.2722450000        4.7683400000
 Au         2.9200000000        1.6858630000        4.7683400000
 Au        11.6800000000        1.6858630000        4.7683400000
 Au         7.3000000000        9.2722450000        4.7683400000
 Au        16.0599990000        9.2722450000        4.7683400000
 Au         5.8400000000        1.6858630000        4.7683400000
 Au        10.2200000000        9.2722450000        4.7683400000
 Au        10.2200000000        4.2146570000        4.7683400000
 Au         4.3800000000        4.2146570000        4.7683400000
 Au        13.1400000000        4.2146570000        4.7683400000
 Au         7.3000000000        4.2146570000        4.7683400000
 Au        11.6800000000        6.7434510000        4.7683400000
 Au         5.8400000000        6.7434510000        4.7683400000
 Au        14.6000000000        6.7434510000        4.7683400000
 Au         8.7600000000        6.7434510000        4.7683400000
  C         4.5030277915        5.7207521308       13.1416649191
  C         4.5739322082        7.0254373213       13.6792243138
  C         3.9382298413        7.3306334495       14.8790155545
  C         3.2137164213        6.3594678914       15.5883511448
  C         3.7525873321        4.7489766814       13.8419292052
  C         3.1277104810        5.0691339961       15.0419151265
  C         2.5723843056        6.6758271227       16.9150895476
  C         2.7004376545        6.6720304291       19.4501864550
  C         3.5202265197        6.5623774023       20.7103213735
  C         4.0062769412        7.7086420047       21.3579343752
  C         4.7859470641        7.6144268063       22.5060086696
  C         5.1196128839        6.3519359930       23.0462423472
  C         3.8374879235        5.3089056136       21.2590478931
  C         4.6228050193        5.1968950015       22.4017220187
  H         5.1386627090        7.7897552784       13.1454455859
  H         4.0107017937        8.3435144249       15.2805981328
  H         5.1550697462        8.5149894917       22.9966290098
  H         4.8617719592        4.2156850825       22.8117927213
  C         5.1936838542        5.3743451744       11.9545677717
  H         3.6784166129        3.7411819208       13.4335260793
  H         2.5622531428        4.3003196413       15.5725911382
  C         5.9499511285        6.2607656441       24.1903963970
  C         3.4548248399        6.4884567679       18.1413923208
  C         4.7592780153        6.1960640875       18.0744619995
  H         2.1956102306        7.6541189146       19.4247696272
  H         1.8824814402        5.9290089379       19.4771291832
  H         1.6686681195        6.0535802835       17.0420377686
  H         2.2070189260        7.7187983209       16.9127636628
  H         5.3609045807        6.0820797043       18.9750590965
  H         5.2615773416        6.0621969624       17.1174642302
  C         6.7016150409        6.2199675345       25.1543748577
  C         8.3924903306        5.1098412299       26.5712575099
  C         9.3616917863        5.1806888694       27.5646333339
  C         9.5888381881        6.3902210835       28.2494807421
  C         7.8147570805        7.4366216628       26.9676203442
  C         8.7775646440        7.5069654688       27.9624249645
  H         9.9654035312        4.3049600552       27.8030429833
  H         8.9302281428        8.4368461499       28.5101927807
  C         5.8292209934        5.0321093361       10.9672248287
  C         6.6259096287        4.5816420424        9.8896121073
  C         6.4877218254        3.2615178650        9.3977478535
  C         7.3423140485        2.7731409949        8.4197959168
  C         8.3698912054        3.5879904943        7.9044098763
  C         8.4739075947        4.9246833868        8.3373940126
  C         7.6160526163        5.4124931384        9.3140173866
  H         5.7102474586        2.6194113240        9.8109803389
  H         7.2391649975        1.7476955013        8.0647709011
  H         9.2502877369        5.5663048841        7.9203470482
  H         7.7173869765        6.4400322188        9.6624518783
  S        11.0012054054        6.5802044257       29.2955667287
  S         9.6476631086        2.8647441240        6.9173286952
  C         7.6189469547        6.2441546302       26.2302095366
  H         7.2073218760        8.3110489847       26.7352439598
  H         8.2355301456        4.1769119595       26.0302049238
  H         3.7677867846        8.6944740487       20.9531281389
  H         3.4653462743        4.4038377401       20.7746284113
 Au         0.0000000000        0.0000000000       31.4875560157
 Au         8.7600000000        0.0000000000       31.4875560157
 Au         4.3800000000        7.5863820000       31.4875560157
 Au        13.1400000000        7.5863820000       31.4875560157
 Au         2.9200000000        0.0000000000       31.4875560157
 Au         7.3000000000        7.5863820000       31.4875560157
 Au         5.8400000000        0.0000000000       31.4875560157
 Au        10.2200000000        7.5863820000       31.4875560157
 Au         1.4600000000        2.5287940000       31.4875560157
 Au        10.2200000000        2.5287940000       31.4875560157
 Au         4.3800000000        2.5287940000       31.4875560157
 Au         7.3000000000        2.5287940000       31.4875560157
 Au         2.9200000000        5.0575880000       31.4875560157
 Au        11.6800000000        5.0575880000       31.4875560157
 Au         5.8400000000        5.0575880000       31.4875560157
 Au         8.7600000000        5.0575880000       31.4875560157
 Au         1.4600000000        0.8429310000       33.8717260157
 Au        10.2200000000        0.8429310000       33.8717260157
 Au         5.8400000000        8.4293140000       33.8717260157
 Au        14.6000000000        8.4293140000       33.8717260157
 Au         4.3800000000        0.8429310000       33.8717260157
 Au         8.7600000000        8.4293140000       33.8717260157
 Au         7.3000000000        0.8429310000       33.8717260157
 Au        11.6800000000        8.4293140000       33.8717260157
 Au         2.9200000000        3.3717260000       33.8717260157
 Au        11.6800000000        3.3717260000       33.8717260157
 Au         5.8400000000        3.3717260000       33.8717260157
 Au         8.7600000000        3.3717260000       33.8717260157
 Au         4.3800000000        5.9005200000       33.8717260157
 Au        13.1400000000        5.9005200000       33.8717260157
 Au         7.3000000000        5.9005200000       33.8717260157
 Au        10.2200000000        5.9005200000       33.8717260157
 Au         8.7600000000        1.6858630000       36.2558960157
 Au        13.1400000000        9.2722450000       36.2558960157
 Au         2.9200000000        1.6858630000       36.2558960157
 Au        11.6800000000        1.6858630000       36.2558960157
 Au         7.3000000000        9.2722450000       36.2558960157
 Au        16.0599990000        9.2722450000       36.2558960157
 Au         5.8400000000        1.6858630000       36.2558960157
 Au        10.2200000000        9.2722450000       36.2558960157
 Au        10.2200000000        4.2146570000       36.2558960157
 Au         4.3800000000        4.2146570000       36.2558960157
 Au        13.1400000000        4.2146570000       36.2558960157
 Au         7.3000000000        4.2146570000       36.2558960157
 Au        11.6800000000        6.7434510000       36.2558960157
 Au         5.8400000000        6.7434510000       36.2558960157
 Au        14.6000000000        6.7434510000       36.2558960157
 Au         8.7600000000        6.7434510000       36.2558960157
Au    0.000000    0.000000    0.000000    R0
Au    8.760000    0.000000    0.000000    R0
Au    4.380000    7.586382    0.000000    R0
Au    13.140000    7.586382    0.000000    R0
Au    2.920000    0.000000    0.000000    R0
Au    7.300000    7.586382    0.000000    R0
Au    5.840000    0.000000    0.000000    R0
Au    10.220000    7.586382    0.000000    R0
Au    1.460000    2.528794    0.000000    R0
Au    10.220000    2.528794    0.000000    R0
Au    4.380000    2.528794    0.000000    R0
Au    7.300000    2.528794    0.000000    R0
Au    2.920000    5.057588    0.000000    R0
Au    11.680000    5.057588    0.000000    R0
Au    5.840000    5.057588    0.000000    R0
Au    8.760000    5.057588    0.000000    R0
Au    1.460000    0.842931    2.384170    R0
Au    10.220000    0.842931    2.384170    R0
Au    5.840000    8.429314    2.384170    R0
Au    14.600000    8.429314    2.384170    R0
Au    4.380000    0.842931    2.384170    R0
Au    8.760000    8.429314    2.384170    R0
Au    7.300000    0.842931    2.384170    R0
Au    11.680000    8.429314    2.384170    R0
Au    2.920000    3.371726    2.384170    R0
Au    11.680000    3.371726    2.384170    R0
Au    5.840000    3.371726    2.384170    R0
Au    8.760000    3.371726    2.384170    R0
Au    4.380000    5.900520    2.384170    R0
Au    13.140000    5.900520    2.384170    R0
Au    7.300000    5.900520    2.384170    R0
Au    10.220000    5.900520    2.384170    R0
Au    8.760000    1.685863    4.768340    R0
Au    13.140000    9.272245    4.768340    R0
Au    2.920000    1.685863    4.768340    R0
Au    11.680000    1.685863    4.768340    R0
Au    7.300000    9.272245    4.768340    R0
Au    16.059999    9.272245    4.768340    R0
Au    5.840000    1.685863    4.768340    R0
Au    10.220000    9.272245    4.768340    R0
Au    10.220000    4.214657    4.768340    R0
Au    4.380000    4.214657    4.768340    R0
Au    13.140000    4.214657    4.768340    R0
Au    7.300000    4.214657    4.768340    R0
Au    11.680000    6.743451    4.768340    R0
Au    5.840000    6.743451    4.768340    R0
Au    14.600000    6.743451    4.768340    R0
Au    8.760000    6.743451    4.768340    R0
Au    0.000000    0.000000    7.152510    R1
Au    8.760000    0.000000    7.152510    R1
Au    4.380000    7.586382    7.152510    R1
Au    13.140000    7.586382    7.152510    R1
Au    2.920000    0.000000    7.152510    R1
Au    7.300000    7.586382    7.152510    R1
Au    5.840000    0.000000    7.152510    R1
Au    10.220000    7.586382    7.152510    R1
Au    1.460000    2.528794    7.152510    R1
Au    10.220000    2.528794    7.152510    R1
Au    4.380000    2.528794    7.152510    R1
Au    7.300000    2.528794    7.152510    R1
Au    2.920000    5.057588    7.152510    R1
Au    11.680000    5.057588    7.152510    R1
Au    5.840000    5.057588    7.152510    R1
Au    8.760000    5.057588    7.152510    R1
Au    1.460000    0.842931    9.536680    R1
Au    10.220000    0.842931    9.536680    R1
Au    5.840000    8.429314    9.536680    R1
Au    14.600000    8.429314    9.536680    R1
Au    4.380000    0.842931    9.536680    R1
Au    8.760000    8.429314    9.536680    R1
Au    7.300000    0.842931    9.536680    R1
Au    11.680000    8.429314    9.536680    R1
Au    2.920000    3.371726    9.536680    R1
Au    11.680000    3.371726    9.536680    R1
Au    5.840000    3.371726    9.536680    R1
Au    8.760000    3.371726    9.536680    R1
Au    4.380000    5.900520    9.536680    R1
Au    13.140000    5.900520    9.536680    R1
Au    7.300000    5.900520    9.536680    R1
Au    10.220000    5.900520    9.536680    R1
Au    8.760000    1.685863    11.920850    R1
Au    13.140000    9.272245    11.920850    R1
Au    2.920000    1.685863    11.920850    R1
Au    11.680000    1.685863    11.920850    R1
Au    7.300000    9.272245    11.920850    R1
Au    16.059999    9.272245    11.920850    R1
Au    5.840000    1.685863    11.920850    R1
Au    10.220000    9.272245    11.920850    R1
Au    10.220000    4.214657    11.920850    R1
Au    4.380000    4.214657    11.920850    R1
Au    13.140000    4.214657    11.920850    R1
Au    7.300000    4.214657    11.920850    R1
Au    11.680000    6.743451    11.920850    R1
Au    5.840000    6.743451    11.920850    R1
Au    14.600000    6.743451    11.920850    R1
Au    8.760000    6.743451    11.920850    R1
Au    0.000000    0.000000    14.305019    R2
Au    8.760000    0.000000    14.305019    R2
Au    4.380000    7.586382    14.305019    R2
Au    13.140000    7.586382    14.305019    R2
Au    2.920000    0.000000    14.305019    R2
Au    7.300000    7.586382    14.305019    R2
Au    5.840000    0.000000    14.305019    R2
Au    10.220000    7.586382    14.305019    R2
Au    1.460000    2.528794    14.305019    R2
Au    10.220000    2.528794    14.305019    R2
Au    4.380000    2.528794    14.305019    R2
Au    7.300000    2.528794    14.305019    R2
Au    2.920000    5.057588    14.305019    R2
Au    11.680000    5.057588    14.305019    R2
Au    5.840000    5.057588    14.305019    R2
Au    8.760000    5.057588    14.305019    R2
Au    1.460000    0.842931    16.689190    R2
Au    10.220000    0.842931    16.689190    R2
Au    5.840000    8.429314    16.689190    R2
Au    14.600000    8.429314    16.689190    R2
Au    4.380000    0.842931    16.689190    R2
Au    8.760000    8.429314    16.689190    R2
Au    7.300000    0.842931    16.689190    R2
Au    11.680000    8.429314    16.689190    R2
Au    2.920000    3.371726    16.689190    R2
Au    11.680000    3.371726    16.689190    R2
Au    5.840000    3.371726    16.689190    R2
Au    8.760000    3.371726    16.689190    R2
Au    4.380000    5.900520    16.689190    R2
Au    13.140000    5.900520    16.689190    R2
Au    7.300000    5.900520    16.689190    R2
Au    10.220000    5.900520    16.689190    R2
Au    8.760000    1.685863    19.073360    R2
Au    13.140000    9.272245    19.073360    R2
Au    2.920000    1.685863    19.073360    R2
Au    11.680000    1.685863    19.073360    R2
Au    7.300000    9.272245    19.073360    R2
Au    16.059999    9.272245    19.073360    R2
Au    5.840000    1.685863    19.073360    R2
Au    10.220000    9.272245    19.073360    R2
Au    10.220000    4.214657    19.073360    R2
Au    4.380000    4.214657    19.073360    R2
Au    13.140000    4.214657    19.073360    R2
Au    7.300000    4.214657    19.073360    R2
Au    11.680000    6.743451    19.073360    R2
Au    5.840000    6.743451    19.073360    R2
Au    14.600000    6.743451    19.073360    R2
Au    8.760000    6.743451    19.073360    R2
Au    0.000000    0.000000    21.457529    R3
Au    8.760000    0.000000    21.457529    R3
Au    4.380000    7.586382    21.457529    R3
Au    13.140000    7.586382    21.457529    R3
Au    2.920000    0.000000    21.457529    R3
Au    7.300000    7.586382    21.457529    R3
Au    5.840000    0.000000    21.457529    R3
Au    10.220000    7.586382    21.457529    R3
Au    1.460000    2.528794    21.457529    R3
Au    10.220000    2.528794    21.457529    R3
Au    4.380000    2.528794    21.457529    R3
Au    7.300000    2.528794    21.457529    R3
Au    2.920000    5.057588    21.457529    R3
Au    11.680000    5.057588    21.457529    R3
Au    5.840000    5.057588    21.457529    R3
Au    8.760000    5.057588    21.457529    R3
Au    1.460000    0.842931    23.841700    R3
Au    10.220000    0.842931    23.841700    R3
Au    5.840000    8.429314    23.841700    R3
Au    14.600000    8.429314    23.841700    R3
Au    4.380000    0.842931    23.841700    R3
Au    8.760000    8.429314    23.841700    R3
Au    7.300000    0.842931    23.841700    R3
Au    11.680000    8.429314    23.841700    R3
Au    2.920000    3.371726    23.841700    R3
Au    11.680000    3.371726    23.841700    R3
Au    5.840000    3.371726    23.841700    R3
Au    8.760000    3.371726    23.841700    R3
Au    4.380000    5.900520    23.841700    R3
Au    13.140000    5.900520    23.841700    R3
Au    7.300000    5.900520    23.841700    R3
Au    10.220000    5.900520    23.841700    R3
Au    8.760000    1.685863    26.225870    R3
Au    13.140000    9.272245    26.225870    R3
Au    2.920000    1.685863    26.225870    R3
Au    11.680000    1.685863    26.225870    R3
Au    7.300000    9.272245    26.225870    R3
Au    16.059999    9.272245    26.225870    R3
Au    5.840000    1.685863    26.225870    R3
Au    10.220000    9.272245    26.225870    R3
Au    10.220000    4.214657    26.225870    R3
Au    4.380000    4.214657    26.225870    R3
Au    13.140000    4.214657    26.225870    R3
Au    7.300000    4.214657    26.225870    R3
Au    11.680000    6.743451    26.225870    R3
Au    5.840000    6.743451    26.225870    R3
Au    14.600000    6.743451    26.225870    R3
Au    8.760000    6.743451    26.225870    R3
