222
 i =       78, E =     -7630.7679613509
Au    0.000000    0.000000    0.000000    L0
Au    8.760000    0.000000    0.000000    L0
Au    4.380000    7.586382    0.000000    L0
Au    13.140000    7.586382    0.000000    L0
Au    2.920000    0.000000    0.000000    L0
Au    11.680000    0.000000    0.000000    L0
Au    7.300000    7.586382    0.000000    L0
Au    16.059999    7.586382    0.000000    L0
Au    5.840000    0.000000    0.000000    L0
Au    14.600000    0.000000    0.000000    L0
Au    10.220000    7.586382    0.000000    L0
Au    18.980000    7.586382    0.000000    L0
Au    1.460000    2.528794    0.000000    L0
Au    10.220000    2.528794    0.000000    L0
Au    5.840000    10.115176    0.000000    L0
Au    14.600000    10.115176    0.000000    L0
Au    4.380000    2.528794    0.000000    L0
Au    13.140000    2.528794    0.000000    L0
Au    8.760000    10.115176    0.000000    L0
Au    17.520000    10.115176    0.000000    L0
Au    7.300000    2.528794    0.000000    L0
Au    16.059999    2.528794    0.000000    L0
Au    11.680000    10.115176    0.000000    L0
Au    20.440001    10.115176    0.000000    L0
Au    2.920000    5.057588    0.000000    L0
Au    11.680000    5.057588    0.000000    L0
Au    5.840000    5.057588    0.000000    L0
Au    14.600000    5.057588    0.000000    L0
Au    8.760000    5.057588    0.000000    L0
Au    17.520000    5.057588    0.000000    L0
Au    1.460000    0.842931    2.384170    L0
Au    10.220000    0.842931    2.384170    L0
Au    5.840000    8.429314    2.384170    L0
Au    14.600000    8.429314    2.384170    L0
Au    4.380000    0.842931    2.384170    L0
Au    13.140000    0.842931    2.384170    L0
Au    8.760000    8.429314    2.384170    L0
Au    17.520000    8.429314    2.384170    L0
Au    7.300000    0.842931    2.384170    L0
Au    16.059999    0.842931    2.384170    L0
Au    11.680000    8.429314    2.384170    L0
Au    20.440001    8.429314    2.384170    L0
Au    2.920000    3.371726    2.384170    L0
Au    11.680000    3.371726    2.384170    L0
Au    7.300000    10.958108    2.384170    L0
Au    16.059999    10.958108    2.384170    L0
Au    5.840000    3.371726    2.384170    L0
Au    14.600000    3.371726    2.384170    L0
Au    10.220000    10.958108    2.384170    L0
Au    18.980000    10.958108    2.384170    L0
Au    8.760000    3.371726    2.384170    L0
Au    17.520000    3.371726    2.384170    L0
Au    13.140000    10.958108    2.384170    L0
Au    21.900000    10.958108    2.384170    L0
Au    4.380000    5.900520    2.384170    L0
Au    13.140000    5.900520    2.384170    L0
Au    7.300000    5.900520    2.384170    L0
Au    16.059999    5.900520    2.384170    L0
Au    10.220000    5.900520    2.384170    L0
Au    18.980000    5.900520    2.384170    L0
Au    0.000000    1.685863    4.768340    L0
Au    8.760000    1.685863    4.768340    L0
Au    4.380000    9.272245    4.768340    L0
Au    13.140000    9.272245    4.768340    L0
Au    2.920000    1.685863    4.768340    L0
Au    11.680000    1.685863    4.768340    L0
Au    7.300000    9.272245    4.768340    L0
Au    16.059999    9.272245    4.768340    L0
Au    5.840000    1.685863    4.768340    L0
Au    14.600000    1.685863    4.768340    L0
Au    10.220000    9.272245    4.768340    L0
Au    18.980000    9.272245    4.768340    L0
Au    1.460000    4.214657    4.768340    L0
Au    10.220000    4.214657    4.768340    L0
Au    5.840000    11.801040    4.768340    L0
Au    14.600000    11.801040    4.768340    L0
Au    4.380000    4.214657    4.768340    L0
Au    13.140000    4.214657    4.768340    L0
Au    8.760000    11.801040    4.768340    L0
Au    17.520000    11.801040    4.768340    L0
Au    7.300000    4.214657    4.768340    L0
Au    16.059999    4.214657    4.768340    L0
Au    11.680000    11.801040    4.768340    L0
Au    20.440001    11.801040    4.768340    L0
Au    2.920000    6.743451    4.768340    L0
Au    11.680000    6.743451    4.768340    L0
Au    5.840000    6.743451    4.768340    L0
Au    14.600000    6.743451    4.768340    L0
Au    8.760000    6.743451    4.768340    L0
Au    17.520000    6.743451    4.768340    L0
C    7.859769999999999    6.451480000000001    19.46687
C    9.258869999999998    6.469320000000001    19.36278
C    9.865359999999999    6.35677    18.11320
C    9.10198    6.217160000000001    16.93607
C    7.083469999999999    6.32801    18.29791
C    7.699539999999999    6.211060000000001    17.05958
C    9.72298    6.066720000000001    15.60255
C    10.88253    6.7692000000000005    15.23125
C    11.43656    6.62844    13.95634
C    10.851669999999999    5.77639    13.01307
C    9.145789999999998    5.20491    14.64874
C    9.702179999999998    5.0614300000000005    13.38311
C    11.422979999999999    5.5536    11.61592
C    10.585359999999998    6.13168    10.47281
C    10.85023    5.69533    9.16558
C    10.08868    6.13999    8.09270
C    9.03763    7.050730000000001    8.28612
C    9.536469999999998    7.03902    10.66877
C    8.77552    7.503430000000001    9.59541
N    12.846699999999998    5.88769    11.49619
H    11.390909999999998    4.46253    11.45428
C    13.85981    4.96142    11.76344
C    15.123429999999999    5.57986    11.55530
C    14.85831    6.94358    11.16118
C    13.442359999999999    7.107730000000001    11.14444
H    9.87141    6.55896    20.26256
H    10.954559999999999    6.343979999999999    18.05345
S    6.914489999999999    6.58176    20.96166
H    5.995839999999999    6.3319    18.36984
H    7.079699999999999    6.138420000000001    16.16543
H    8.269569999999998    4.61402    14.91763
H    11.345289999999999    7.4571    15.94043
H    12.336289999999998    7.187310000000001    13.69770
H    9.240279999999998    4.37395    12.67085
H    9.303609999999999    7.38812    11.67531
H    11.66438    4.99084    8.98341
H    10.30077    5.76194    7.08951
S    7.946259999999999    7.63779    7.02026
H    7.961459999999999    8.2073    9.77248
C    13.75963    3.6291900000000004    12.17881
C    14.943169999999999    2.91434    12.36962
C    16.199419999999996    3.5108700000000006    12.16212
C    16.29667    4.84123    11.75691
H    12.797149999999998    3.1549500000000004    12.37012
H    14.888549999999999    1.8750100000000005    12.69524
H    17.104039999999998    2.92682    12.33427
H    17.27311    5.30349    11.60381
C    12.86535    8.3416    10.81902
C    13.71797    9.39772    10.49381
C    15.68981    8.0212    10.82892
H    11.787709999999999    8.48302    10.80413
C    15.115499999999999    9.24473    10.49234
H    13.284519999999999    10.362269999999999    10.22718
H    16.77413    7.8990800000000005    10.82839
H    15.74964    10.08897    10.22004
Au    0.0000000000    0.0000000000    23.0678022631    R0
Au    8.7600000000    0.0000000000    23.0678022631    R0
Au    4.3800000000    7.5863820000    23.0678022631    R0
Au    13.1400000000    7.5863820000    23.0678022631    R0
Au    2.9200000000    0.0000000000    23.0678022631    R0
Au    11.6800000000    0.0000000000    23.0678022631    R0
Au    7.3000000000    7.5863820000    23.0678022631    R0
Au    16.0599990000    7.5863820000    23.0678022631    R0
Au    5.8400000000    0.0000000000    23.0678022631    R0
Au    14.6000000000    0.0000000000    23.0678022631    R0
Au    10.2200000000    7.5863820000    23.0678022631    R0
Au    18.9800000000    7.5863820000    23.0678022631    R0
Au    1.4600000000    2.5287940000    23.0678022631    R0
Au    10.2200000000    2.5287940000    23.0678022631    R0
Au    5.8400000000    10.1151760000    23.0678022631    R0
Au    14.6000000000    10.1151760000    23.0678022631    R0
Au    4.3800000000    2.5287940000    23.0678022631    R0
Au    13.1400000000    2.5287940000    23.0678022631    R0
Au    8.7600000000    10.1151760000    23.0678022631    R0
Au    17.5200000000    10.1151760000    23.0678022631    R0
Au    7.3000000000    2.5287940000    23.0678022631    R0
Au    16.0599990000    2.5287940000    23.0678022631    R0
Au    11.6800000000    10.1151760000    23.0678022631    R0
Au    20.4400010000    10.1151760000    23.0678022631    R0
Au    2.9200000000    5.0575880000    23.0678022631    R0
Au    11.6800000000    5.0575880000    23.0678022631    R0
Au    5.8400000000    5.0575880000    23.0678022631    R0
Au    14.6000000000    5.0575880000    23.0678022631    R0
Au    8.7600000000    5.0575880000    23.0678022631    R0
Au    17.5200000000    5.0575880000    23.0678022631    R0
Au    1.4600000000    0.8429310000    25.451972263099996    R0
Au    10.2200000000    0.8429310000    25.451972263099996    R0
Au    5.8400000000    8.4293140000    25.451972263099996    R0
Au    14.6000000000    8.4293140000    25.451972263099996    R0
Au    4.3800000000    0.8429310000    25.451972263099996    R0
Au    13.1400000000    0.8429310000    25.451972263099996    R0
Au    8.7600000000    8.4293140000    25.451972263099996    R0
Au    17.5200000000    8.4293140000    25.451972263099996    R0
Au    7.3000000000    0.8429310000    25.451972263099996    R0
Au    16.0599990000    0.8429310000    25.451972263099996    R0
Au    11.6800000000    8.4293140000    25.451972263099996    R0
Au    20.4400010000    8.4293140000    25.451972263099996    R0
Au    2.9200000000    3.3717260000    25.451972263099996    R0
Au    11.6800000000    3.3717260000    25.451972263099996    R0
Au    7.3000000000    10.9581080000    25.451972263099996    R0
Au    16.0599990000    10.9581080000    25.451972263099996    R0
Au    5.8400000000    3.3717260000    25.451972263099996    R0
Au    14.6000000000    3.3717260000    25.451972263099996    R0
Au    10.2200000000    10.9581080000    25.451972263099996    R0
Au    18.9800000000    10.9581080000    25.451972263099996    R0
Au    8.7600000000    3.3717260000    25.451972263099996    R0
Au    17.5200000000    3.3717260000    25.451972263099996    R0
Au    13.1400000000    10.9581080000    25.451972263099996    R0
Au    21.9000000000    10.9581080000    25.451972263099996    R0
Au    4.3800000000    5.9005200000    25.451972263099996    R0
Au    13.1400000000    5.9005200000    25.451972263099996    R0
Au    7.3000000000    5.9005200000    25.451972263099996    R0
Au    16.0599990000    5.9005200000    25.451972263099996    R0
Au    10.2200000000    5.9005200000    25.451972263099996    R0
Au    18.9800000000    5.9005200000    25.451972263099996    R0
Au    0.0000000000    1.6858630000    27.836142263099998    R0
Au    8.7600000000    1.6858630000    27.836142263099998    R0
Au    4.3800000000    9.2722450000    27.836142263099998    R0
Au    13.1400000000    9.2722450000    27.836142263099998    R0
Au    2.9200000000    1.6858630000    27.836142263099998    R0
Au    11.6800000000    1.6858630000    27.836142263099998    R0
Au    7.3000000000    9.2722450000    27.836142263099998    R0
Au    16.0599990000    9.2722450000    27.836142263099998    R0
Au    5.8400000000    1.6858630000    27.836142263099998    R0
Au    14.6000000000    1.6858630000    27.836142263099998    R0
Au    10.2200000000    9.2722450000    27.836142263099998    R0
Au    18.9800000000    9.2722450000    27.836142263099998    R0
Au    1.4600000000    4.2146570000    27.836142263099998    R0
Au    10.2200000000    4.2146570000    27.836142263099998    R0
Au    5.8400000000    11.8010400000    27.836142263099998    R0
Au    14.6000000000    11.8010400000    27.836142263099998    R0
Au    4.3800000000    4.2146570000    27.836142263099998    R0
Au    13.1400000000    4.2146570000    27.836142263099998    R0
Au    8.7600000000    11.8010400000    27.836142263099998    R0
Au    17.5200000000    11.8010400000    27.836142263099998    R0
Au    7.3000000000    4.2146570000    27.836142263099998    R0
Au    16.0599990000    4.2146570000    27.836142263099998    R0
Au    11.6800000000    11.8010400000    27.836142263099998    R0
Au    20.4400010000    11.8010400000    27.836142263099998    R0
Au    2.9200000000    6.7434510000    27.836142263099998    R0
Au    11.6800000000    6.7434510000    27.836142263099998    R0
Au    5.8400000000    6.7434510000    27.836142263099998    R0
Au    14.6000000000    6.7434510000    27.836142263099998    R0
Au    8.7600000000    6.7434510000    27.836142263099998    R0
Au    17.5200000000    6.7434510000    27.836142263099998    R0
