     226
 i =      347, E =     -6159.6344739600
 Au         0.0000000000        0.0000000000        0.0000000000
 Au         8.7600000000        0.0000000000        0.0000000000
 Au         4.3800000000        7.5863820000        0.0000000000
 Au        13.1400000000        7.5863820000        0.0000000000
 Au         2.9200000000        0.0000000000        0.0000000000
 Au        11.6800000000        0.0000000000        0.0000000000
 Au         7.3000000000        7.5863820000        0.0000000000
 Au        16.0599990000        7.5863820000        0.0000000000
 Au         5.8400000000        0.0000000000        0.0000000000
 Au        14.6000000000        0.0000000000        0.0000000000
 Au        10.2200000000        7.5863820000        0.0000000000
 Au        18.9800000000        7.5863820000        0.0000000000
 Au         1.4600000000        2.5287940000        0.0000000000
 Au        10.2200000000        2.5287940000        0.0000000000
 Au         5.8400000000       10.1151760000        0.0000000000
 Au        14.6000000000       10.1151760000        0.0000000000
 Au         4.3800000000        2.5287940000        0.0000000000
 Au        13.1400000000        2.5287940000        0.0000000000
 Au         8.7600000000       10.1151760000        0.0000000000
 Au        17.5200000000       10.1151760000        0.0000000000
 Au         7.3000000000        2.5287940000        0.0000000000
 Au        16.0599990000        2.5287940000        0.0000000000
 Au        11.6800000000       10.1151760000        0.0000000000
 Au        20.4400010000       10.1151760000        0.0000000000
 Au         2.9200000000        5.0575880000        0.0000000000
 Au        11.6800000000        5.0575880000        0.0000000000
 Au         5.8400000000        5.0575880000        0.0000000000
 Au        14.6000000000        5.0575880000        0.0000000000
 Au         8.7600000000        5.0575880000        0.0000000000
 Au        17.5200000000        5.0575880000        0.0000000000
 Au         1.4600000000        0.8429310000        2.3841700000
 Au        10.2200000000        0.8429310000        2.3841700000
 Au         5.8400000000        8.4293140000        2.3841700000
 Au        14.6000000000        8.4293140000        2.3841700000
 Au         4.3800000000        0.8429310000        2.3841700000
 Au        13.1400000000        0.8429310000        2.3841700000
 Au         8.7600000000        8.4293140000        2.3841700000
 Au        17.5200000000        8.4293140000        2.3841700000
 Au         7.3000000000        0.8429310000        2.3841700000
 Au        16.0599990000        0.8429310000        2.3841700000
 Au        11.6800000000        8.4293140000        2.3841700000
 Au        20.4400010000        8.4293140000        2.3841700000
 Au         2.9200000000        3.3717260000        2.3841700000
 Au        11.6800000000        3.3717260000        2.3841700000
 Au         7.3000000000       10.9581080000        2.3841700000
 Au        16.0599990000       10.9581080000        2.3841700000
 Au         5.8400000000        3.3717260000        2.3841700000
 Au        14.6000000000        3.3717260000        2.3841700000
 Au        10.2200000000       10.9581080000        2.3841700000
 Au        18.9800000000       10.9581080000        2.3841700000
 Au         8.7600000000        3.3717260000        2.3841700000
 Au        17.5200000000        3.3717260000        2.3841700000
 Au        13.1400000000       10.9581080000        2.3841700000
 Au        21.9000000000       10.9581080000        2.3841700000
 Au         4.3800000000        5.9005200000        2.3841700000
 Au        13.1400000000        5.9005200000        2.3841700000
 Au         7.3000000000        5.9005200000        2.3841700000
 Au        16.0599990000        5.9005200000        2.3841700000
 Au        10.2200000000        5.9005200000        2.3841700000
 Au        18.9800000000        5.9005200000        2.3841700000
 Au         0.0000000000        1.6858630000        4.7683400000
 Au         8.7600000000        1.6858630000        4.7683400000
 Au         4.3800000000        9.2722450000        4.7683400000
 Au        13.1400000000        9.2722450000        4.7683400000
 Au         2.9200000000        1.6858630000        4.7683400000
 Au        11.6800000000        1.6858630000        4.7683400000
 Au         7.3000000000        9.2722450000        4.7683400000
 Au        16.0599990000        9.2722450000        4.7683400000
 Au         5.8400000000        1.6858630000        4.7683400000
 Au        14.6000000000        1.6858630000        4.7683400000
 Au        10.2200000000        9.2722450000        4.7683400000
 Au        18.9800000000        9.2722450000        4.7683400000
 Au         1.4600000000        4.2146570000        4.7683400000
 Au        10.2200000000        4.2146570000        4.7683400000
 Au         5.8400000000       11.8010400000        4.7683400000
 Au        14.6000000000       11.8010400000        4.7683400000
 Au         4.3800000000        4.2146570000        4.7683400000
 Au        13.1400000000        4.2146570000        4.7683400000
 Au         8.7600000000       11.8010400000        4.7683400000
 Au        17.5200000000       11.8010400000        4.7683400000
 Au         7.3000000000        4.2146570000        4.7683400000
 Au        16.0599990000        4.2146570000        4.7683400000
 Au        11.6800000000       11.8010400000        4.7683400000
 Au        20.4400010000       11.8010400000        4.7683400000
 Au         2.9200000000        6.7434510000        4.7683400000
 Au        11.6800000000        6.7434510000        4.7683400000
 Au         5.8400000000        6.7434510000        4.7683400000
 Au        14.6000000000        6.7434510000        4.7683400000
 Au         8.7600000000        6.7434510000        4.7683400000
 Au        17.5200000000        6.7434510000        4.7683400000
  C         7.3874082948        8.8110930250       19.5275728852
  C         8.5375671454        8.0354853073       19.2961009789
  C         9.1642222398        8.0720989369       18.0534626778
  C         8.6733457796        8.8743249131       17.0016526499
  C         6.9346086730        9.6819597076       18.5159746237
  C         7.5665482277        9.7033639143       17.2781188422
  C         9.2512689210        8.8012660516       15.6410311577
  C        10.6233227437        8.5749980206       15.4199334394
  C        11.1344775004        8.4406766933       14.1300770464
  C        10.3015908567        8.5262066288       13.0031095443
  C         8.4232185986        8.9027102395       14.5063983056
  C         8.9362037858        8.7654846290       13.2172902915
  C        10.8522336913        8.2247801130       11.6051353635
  C        10.0585876807        8.8198247984       10.4450059513
  C         9.6901739302        8.0053534488        9.3609821029
  C         9.0241237003        8.5202565590        8.2491746142
  C         8.7169378374        9.8882301371        8.1879896382
  C         9.7481892968       10.1899868505       10.3688468451
  C         9.0976110292       10.7226076353        9.2589998918
  N        12.2972454751        8.5075233056       11.5178045144
  H        10.7802525050        7.1266853929       11.4936989012
  C        13.0350710190        7.8471276709       10.4254511237
  C        14.3162157355        8.7170864777       10.2827165640
  N        14.2216074443        9.7802799832       11.3103409366
  C        12.7890134832        9.9013172841       11.5414908177
  H         8.9055416169        7.3686396043       20.0769039237
  H        10.0188414311        7.4178463899       17.8769140882
  S         6.3149319964        8.5522549881       20.9113364635
  H         6.0670561898       10.3166266372       18.6979097063
  H         7.1938665096       10.3786591381       16.5070940271
  H         7.3497084109        9.0466306684       14.6354626626
  H        11.3041060265        8.5155374890       16.2706004972
  H        12.1981114096        8.2528538715       13.9798683919
  H         8.2557188105        8.8234408037       12.3669873321
  H         9.9981379517       10.8515267719       11.1994386100
  H         9.9088482714        6.9357902496        9.3951759562
  H         8.7191221357        7.8574971420        7.4376759325
  S         7.6967223572       10.6160304549        6.9320242048
  H         8.8590575085       11.7859097563        9.2244641252
  H        15.2409027468        8.1422411218       10.4154852310
  H        14.3527550955        9.1813239210        9.2860803493
  H        12.4715290378        7.8402629682        9.4741794730
  H        13.2504338062        6.8019481343       10.6989820476
  H        12.3531861720       10.5144473086       10.7283632904
  H        12.5682413276       10.3828829758       12.5042881787
  H        14.6474079637        9.4291182104       12.1742969080
 Au         0.0000000000        0.0000000000       23.0678022631
 Au         8.7600000000        0.0000000000       23.0678022631
 Au         4.3800000000        7.5863820000       23.0678022631
 Au        13.1400000000        7.5863820000       23.0678022631
 Au         2.9200000000        0.0000000000       23.0678022631
 Au        11.6800000000        0.0000000000       23.0678022631
 Au         7.3000000000        7.5863820000       23.0678022631
 Au        16.0599990000        7.5863820000       23.0678022631
 Au         5.8400000000        0.0000000000       23.0678022631
 Au        14.6000000000        0.0000000000       23.0678022631
 Au        10.2200000000        7.5863820000       23.0678022631
 Au        18.9800000000        7.5863820000       23.0678022631
 Au         1.4600000000        2.5287940000       23.0678022631
 Au        10.2200000000        2.5287940000       23.0678022631
 Au         5.8400000000       10.1151760000       23.0678022631
 Au        14.6000000000       10.1151760000       23.0678022631
 Au         4.3800000000        2.5287940000       23.0678022631
 Au        13.1400000000        2.5287940000       23.0678022631
 Au         8.7600000000       10.1151760000       23.0678022631
 Au        17.5200000000       10.1151760000       23.0678022631
 Au         7.3000000000        2.5287940000       23.0678022631
 Au        16.0599990000        2.5287940000       23.0678022631
 Au        11.6800000000       10.1151760000       23.0678022631
 Au        20.4400010000       10.1151760000       23.0678022631
 Au         2.9200000000        5.0575880000       23.0678022631
 Au        11.6800000000        5.0575880000       23.0678022631
 Au         5.8400000000        5.0575880000       23.0678022631
 Au        14.6000000000        5.0575880000       23.0678022631
 Au         8.7600000000        5.0575880000       23.0678022631
 Au        17.5200000000        5.0575880000       23.0678022631
 Au         1.4600000000        0.8429310000       25.4519722631
 Au        10.2200000000        0.8429310000       25.4519722631
 Au         5.8400000000        8.4293140000       25.4519722631
 Au        14.6000000000        8.4293140000       25.4519722631
 Au         4.3800000000        0.8429310000       25.4519722631
 Au        13.1400000000        0.8429310000       25.4519722631
 Au         8.7600000000        8.4293140000       25.4519722631
 Au        17.5200000000        8.4293140000       25.4519722631
 Au         7.3000000000        0.8429310000       25.4519722631
 Au        16.0599990000        0.8429310000       25.4519722631
 Au        11.6800000000        8.4293140000       25.4519722631
 Au        20.4400010000        8.4293140000       25.4519722631
 Au         2.9200000000        3.3717260000       25.4519722631
 Au        11.6800000000        3.3717260000       25.4519722631
 Au         7.3000000000       10.9581080000       25.4519722631
 Au        16.0599990000       10.9581080000       25.4519722631
 Au         5.8400000000        3.3717260000       25.4519722631
 Au        14.6000000000        3.3717260000       25.4519722631
 Au        10.2200000000       10.9581080000       25.4519722631
 Au        18.9800000000       10.9581080000       25.4519722631
 Au         8.7600000000        3.3717260000       25.4519722631
 Au        17.5200000000        3.3717260000       25.4519722631
 Au        13.1400000000       10.9581080000       25.4519722631
 Au        21.9000000000       10.9581080000       25.4519722631
 Au         4.3800000000        5.9005200000       25.4519722631
 Au        13.1400000000        5.9005200000       25.4519722631
 Au         7.3000000000        5.9005200000       25.4519722631
 Au        16.0599990000        5.9005200000       25.4519722631
 Au        10.2200000000        5.9005200000       25.4519722631
 Au        18.9800000000        5.9005200000       25.4519722631
 Au         0.0000000000        1.6858630000       27.8361422631
 Au         8.7600000000        1.6858630000       27.8361422631
 Au         4.3800000000        9.2722450000       27.8361422631
 Au        13.1400000000        9.2722450000       27.8361422631
 Au         2.9200000000        1.6858630000       27.8361422631
 Au        11.6800000000        1.6858630000       27.8361422631
 Au         7.3000000000        9.2722450000       27.8361422631
 Au        16.0599990000        9.2722450000       27.8361422631
 Au         5.8400000000        1.6858630000       27.8361422631
 Au        14.6000000000        1.6858630000       27.8361422631
 Au        10.2200000000        9.2722450000       27.8361422631
 Au        18.9800000000        9.2722450000       27.8361422631
 Au         1.4600000000        4.2146570000       27.8361422631
 Au        10.2200000000        4.2146570000       27.8361422631
 Au         5.8400000000       11.8010400000       27.8361422631
 Au        14.6000000000       11.8010400000       27.8361422631
 Au         4.3800000000        4.2146570000       27.8361422631
 Au        13.1400000000        4.2146570000       27.8361422631
 Au         8.7600000000       11.8010400000       27.8361422631
 Au        17.5200000000       11.8010400000       27.8361422631
 Au         7.3000000000        4.2146570000       27.8361422631
 Au        16.0599990000        4.2146570000       27.8361422631
 Au        11.6800000000       11.8010400000       27.8361422631
 Au        20.4400010000       11.8010400000       27.8361422631
 Au         2.9200000000        6.7434510000       27.8361422631
 Au        11.6800000000        6.7434510000       27.8361422631
 Au         5.8400000000        6.7434510000       27.8361422631
 Au        14.6000000000        6.7434510000       27.8361422631
 Au         8.7600000000        6.7434510000       27.8361422631
 Au        17.5200000000        6.7434510000       27.8361422631
 Au    0.000000    0.000000    51.6778423991    R1
Au    8.760000    0.000000    51.6778423991    R1
Au    4.380000    7.586382    51.6778423991    R1
Au    13.140000    7.586382    51.6778423991    R1
Au    2.920000    0.000000    51.6778423991    R1
Au    11.680000    0.000000    51.6778423991    R1
Au    7.300000    7.586382    51.6778423991    R1
Au    16.059999    7.586382    51.6778423991    R1
Au    5.840000    0.000000    51.6778423991    R1
Au    14.600000    0.000000    51.6778423991    R1
Au    10.220000    7.586382    51.6778423991    R1
Au    18.980000    7.586382    51.6778423991    R1
Au    1.460000    2.528794    51.6778423991    R1
Au    10.220000    2.528794    51.6778423991    R1
Au    5.840000    10.115176    51.6778423991    R1
Au    14.600000    10.115176    51.6778423991    R1
Au    4.380000    2.528794    51.6778423991    R1
Au    13.140000    2.528794    51.6778423991    R1
Au    8.760000    10.115176    51.6778423991    R1
Au    17.520000    10.115176    51.6778423991    R1
Au    7.300000    2.528794    51.6778423991    R1
Au    16.059999    2.528794    51.6778423991    R1
Au    11.680000    10.115176    51.6778423991    R1
Au    20.440001    10.115176    51.6778423991    R1
Au    2.920000    5.057588    51.6778423991    R1
Au    11.680000    5.057588    51.6778423991    R1
Au    5.840000    5.057588    51.6778423991    R1
Au    14.600000    5.057588    51.6778423991    R1
Au    8.760000    5.057588    51.6778423991    R1
Au    17.520000    5.057588    51.6778423991    R1
Au    1.460000    0.842931    54.062012399100006    R1
Au    10.220000    0.842931    54.062012399100006    R1
Au    5.840000    8.429314    54.062012399100006    R1
Au    14.600000    8.429314    54.062012399100006    R1
Au    4.380000    0.842931    54.062012399100006    R1
Au    13.140000    0.842931    54.062012399100006    R1
Au    8.760000    8.429314    54.062012399100006    R1
Au    17.520000    8.429314    54.062012399100006    R1
Au    7.300000    0.842931    54.062012399100006    R1
Au    16.059999    0.842931    54.062012399100006    R1
Au    11.680000    8.429314    54.062012399100006    R1
Au    20.440001    8.429314    54.062012399100006    R1
Au    2.920000    3.371726    54.062012399100006    R1
Au    11.680000    3.371726    54.062012399100006    R1
Au    7.300000    10.958108    54.062012399100006    R1
Au    16.059999    10.958108    54.062012399100006    R1
Au    5.840000    3.371726    54.062012399100006    R1
Au    14.600000    3.371726    54.062012399100006    R1
Au    10.220000    10.958108    54.062012399100006    R1
Au    18.980000    10.958108    54.062012399100006    R1
Au    8.760000    3.371726    54.062012399100006    R1
Au    17.520000    3.371726    54.062012399100006    R1
Au    13.140000    10.958108    54.062012399100006    R1
Au    21.900000    10.958108    54.062012399100006    R1
Au    4.380000    5.900520    54.062012399100006    R1
Au    13.140000    5.900520    54.062012399100006    R1
Au    7.300000    5.900520    54.062012399100006    R1
Au    16.059999    5.900520    54.062012399100006    R1
Au    10.220000    5.900520    54.062012399100006    R1
Au    18.980000    5.900520    54.062012399100006    R1
Au    0.000000    1.685863    56.4461823991    R1
Au    8.760000    1.685863    56.4461823991    R1
Au    4.380000    9.272245    56.4461823991    R1
Au    13.140000    9.272245    56.4461823991    R1
Au    2.920000    1.685863    56.4461823991    R1
Au    11.680000    1.685863    56.4461823991    R1
Au    7.300000    9.272245    56.4461823991    R1
Au    16.059999    9.272245    56.4461823991    R1
Au    5.840000    1.685863    56.4461823991    R1
Au    14.600000    1.685863    56.4461823991    R1
Au    10.220000    9.272245    56.4461823991    R1
Au    18.980000    9.272245    56.4461823991    R1
Au    1.460000    4.214657    56.4461823991    R1
Au    10.220000    4.214657    56.4461823991    R1
Au    5.840000    11.801040    56.4461823991    R1
Au    14.600000    11.801040    56.4461823991    R1
Au    4.380000    4.214657    56.4461823991    R1
Au    13.140000    4.214657    56.4461823991    R1
Au    8.760000    11.801040    56.4461823991    R1
Au    17.520000    11.801040    56.4461823991    R1
Au    7.300000    4.214657    56.4461823991    R1
Au    16.059999    4.214657    56.4461823991    R1
Au    11.680000    11.801040    56.4461823991    R1
Au    20.440001    11.801040    56.4461823991    R1
Au    2.920000    6.743451    56.4461823991    R1
Au    11.680000    6.743451    56.4461823991    R1
Au    5.840000    6.743451    56.4461823991    R1
Au    14.600000    6.743451    56.4461823991    R1
Au    8.760000    6.743451    56.4461823991    R1
Au    17.520000    6.743451    56.4461823991    R1
Au    0.000000    0.000000    58.8303513991    R2
Au    8.760000    0.000000    58.8303513991    R2
Au    4.380000    7.586382    58.8303513991    R2
Au    13.140000    7.586382    58.8303513991    R2
Au    2.920000    0.000000    58.8303513991    R2
Au    11.680000    0.000000    58.8303513991    R2
Au    7.300000    7.586382    58.8303513991    R2
Au    16.059999    7.586382    58.8303513991    R2
Au    5.840000    0.000000    58.8303513991    R2
Au    14.600000    0.000000    58.8303513991    R2
Au    10.220000    7.586382    58.8303513991    R2
Au    18.980000    7.586382    58.8303513991    R2
Au    1.460000    2.528794    58.8303513991    R2
Au    10.220000    2.528794    58.8303513991    R2
Au    5.840000    10.115176    58.8303513991    R2
Au    14.600000    10.115176    58.8303513991    R2
Au    4.380000    2.528794    58.8303513991    R2
Au    13.140000    2.528794    58.8303513991    R2
Au    8.760000    10.115176    58.8303513991    R2
Au    17.520000    10.115176    58.8303513991    R2
Au    7.300000    2.528794    58.8303513991    R2
Au    16.059999    2.528794    58.8303513991    R2
Au    11.680000    10.115176    58.8303513991    R2
Au    20.440001    10.115176    58.8303513991    R2
Au    2.920000    5.057588    58.8303513991    R2
Au    11.680000    5.057588    58.8303513991    R2
Au    5.840000    5.057588    58.8303513991    R2
Au    14.600000    5.057588    58.8303513991    R2
Au    8.760000    5.057588    58.8303513991    R2
Au    17.520000    5.057588    58.8303513991    R2
Au    1.460000    0.842931    61.2145223991    R2
Au    10.220000    0.842931    61.2145223991    R2
Au    5.840000    8.429314    61.2145223991    R2
Au    14.600000    8.429314    61.2145223991    R2
Au    4.380000    0.842931    61.2145223991    R2
Au    13.140000    0.842931    61.2145223991    R2
Au    8.760000    8.429314    61.2145223991    R2
Au    17.520000    8.429314    61.2145223991    R2
Au    7.300000    0.842931    61.2145223991    R2
Au    16.059999    0.842931    61.2145223991    R2
Au    11.680000    8.429314    61.2145223991    R2
Au    20.440001    8.429314    61.2145223991    R2
Au    2.920000    3.371726    61.2145223991    R2
Au    11.680000    3.371726    61.2145223991    R2
Au    7.300000    10.958108    61.2145223991    R2
Au    16.059999    10.958108    61.2145223991    R2
Au    5.840000    3.371726    61.2145223991    R2
Au    14.600000    3.371726    61.2145223991    R2
Au    10.220000    10.958108    61.2145223991    R2
Au    18.980000    10.958108    61.2145223991    R2
Au    8.760000    3.371726    61.2145223991    R2
Au    17.520000    3.371726    61.2145223991    R2
Au    13.140000    10.958108    61.2145223991    R2
Au    21.900000    10.958108    61.2145223991    R2
Au    4.380000    5.900520    61.2145223991    R2
Au    13.140000    5.900520    61.2145223991    R2
Au    7.300000    5.900520    61.2145223991    R2
Au    16.059999    5.900520    61.2145223991    R2
Au    10.220000    5.900520    61.2145223991    R2
Au    18.980000    5.900520    61.2145223991    R2
Au    0.000000    1.685863    63.59869239910001    R2
Au    8.760000    1.685863    63.59869239910001    R2
Au    4.380000    9.272245    63.59869239910001    R2
Au    13.140000    9.272245    63.59869239910001    R2
Au    2.920000    1.685863    63.59869239910001    R2
Au    11.680000    1.685863    63.59869239910001    R2
Au    7.300000    9.272245    63.59869239910001    R2
Au    16.059999    9.272245    63.59869239910001    R2
Au    5.840000    1.685863    63.59869239910001    R2
Au    14.600000    1.685863    63.59869239910001    R2
Au    10.220000    9.272245    63.59869239910001    R2
Au    18.980000    9.272245    63.59869239910001    R2
Au    1.460000    4.214657    63.59869239910001    R2
Au    10.220000    4.214657    63.59869239910001    R2
Au    5.840000    11.801040    63.59869239910001    R2
Au    14.600000    11.801040    63.59869239910001    R2
Au    4.380000    4.214657    63.59869239910001    R2
Au    13.140000    4.214657    63.59869239910001    R2
Au    8.760000    11.801040    63.59869239910001    R2
Au    17.520000    11.801040    63.59869239910001    R2
Au    7.300000    4.214657    63.59869239910001    R2
Au    16.059999    4.214657    63.59869239910001    R2
Au    11.680000    11.801040    63.59869239910001    R2
Au    20.440001    11.801040    63.59869239910001    R2
Au    2.920000    6.743451    63.59869239910001    R2
Au    11.680000    6.743451    63.59869239910001    R2
Au    5.840000    6.743451    63.59869239910001    R2
Au    14.600000    6.743451    63.59869239910001    R2
Au    8.760000    6.743451    63.59869239910001    R2
Au    17.520000    6.743451    63.59869239910001    R2
Au    0.000000    0.000000    65.98286139909999    R3
Au    8.760000    0.000000    65.98286139909999    R3
Au    4.380000    7.586382    65.98286139909999    R3
Au    13.140000    7.586382    65.98286139909999    R3
Au    2.920000    0.000000    65.98286139909999    R3
Au    11.680000    0.000000    65.98286139909999    R3
Au    7.300000    7.586382    65.98286139909999    R3
Au    16.059999    7.586382    65.98286139909999    R3
Au    5.840000    0.000000    65.98286139909999    R3
Au    14.600000    0.000000    65.98286139909999    R3
Au    10.220000    7.586382    65.98286139909999    R3
Au    18.980000    7.586382    65.98286139909999    R3
Au    1.460000    2.528794    65.98286139909999    R3
Au    10.220000    2.528794    65.98286139909999    R3
Au    5.840000    10.115176    65.98286139909999    R3
Au    14.600000    10.115176    65.98286139909999    R3
Au    4.380000    2.528794    65.98286139909999    R3
Au    13.140000    2.528794    65.98286139909999    R3
Au    8.760000    10.115176    65.98286139909999    R3
Au    17.520000    10.115176    65.98286139909999    R3
Au    7.300000    2.528794    65.98286139909999    R3
Au    16.059999    2.528794    65.98286139909999    R3
Au    11.680000    10.115176    65.98286139909999    R3
Au    20.440001    10.115176    65.98286139909999    R3
Au    2.920000    5.057588    65.98286139909999    R3
Au    11.680000    5.057588    65.98286139909999    R3
Au    5.840000    5.057588    65.98286139909999    R3
Au    14.600000    5.057588    65.98286139909999    R3
Au    8.760000    5.057588    65.98286139909999    R3
Au    17.520000    5.057588    65.98286139909999    R3
Au    1.460000    0.842931    68.3670323991    R3
Au    10.220000    0.842931    68.3670323991    R3
Au    5.840000    8.429314    68.3670323991    R3
Au    14.600000    8.429314    68.3670323991    R3
Au    4.380000    0.842931    68.3670323991    R3
Au    13.140000    0.842931    68.3670323991    R3
Au    8.760000    8.429314    68.3670323991    R3
Au    17.520000    8.429314    68.3670323991    R3
Au    7.300000    0.842931    68.3670323991    R3
Au    16.059999    0.842931    68.3670323991    R3
Au    11.680000    8.429314    68.3670323991    R3
Au    20.440001    8.429314    68.3670323991    R3
Au    2.920000    3.371726    68.3670323991    R3
Au    11.680000    3.371726    68.3670323991    R3
Au    7.300000    10.958108    68.3670323991    R3
Au    16.059999    10.958108    68.3670323991    R3
Au    5.840000    3.371726    68.3670323991    R3
Au    14.600000    3.371726    68.3670323991    R3
Au    10.220000    10.958108    68.3670323991    R3
Au    18.980000    10.958108    68.3670323991    R3
Au    8.760000    3.371726    68.3670323991    R3
Au    17.520000    3.371726    68.3670323991    R3
Au    13.140000    10.958108    68.3670323991    R3
Au    21.900000    10.958108    68.3670323991    R3
Au    4.380000    5.900520    68.3670323991    R3
Au    13.140000    5.900520    68.3670323991    R3
Au    7.300000    5.900520    68.3670323991    R3
Au    16.059999    5.900520    68.3670323991    R3
Au    10.220000    5.900520    68.3670323991    R3
Au    18.980000    5.900520    68.3670323991    R3
Au    0.000000    1.685863    70.75120239910001    R3
Au    8.760000    1.685863    70.75120239910001    R3
Au    4.380000    9.272245    70.75120239910001    R3
Au    13.140000    9.272245    70.75120239910001    R3
Au    2.920000    1.685863    70.75120239910001    R3
Au    11.680000    1.685863    70.75120239910001    R3
Au    7.300000    9.272245    70.75120239910001    R3
Au    16.059999    9.272245    70.75120239910001    R3
Au    5.840000    1.685863    70.75120239910001    R3
Au    14.600000    1.685863    70.75120239910001    R3
Au    10.220000    9.272245    70.75120239910001    R3
Au    18.980000    9.272245    70.75120239910001    R3
Au    1.460000    4.214657    70.75120239910001    R3
Au    10.220000    4.214657    70.75120239910001    R3
Au    5.840000    11.801040    70.75120239910001    R3
Au    14.600000    11.801040    70.75120239910001    R3
Au    4.380000    4.214657    70.75120239910001    R3
Au    13.140000    4.214657    70.75120239910001    R3
Au    8.760000    11.801040    70.75120239910001    R3
Au    17.520000    11.801040    70.75120239910001    R3
Au    7.300000    4.214657    70.75120239910001    R3
Au    16.059999    4.214657    70.75120239910001    R3
Au    11.680000    11.801040    70.75120239910001    R3
Au    20.440001    11.801040    70.75120239910001    R3
Au    2.920000    6.743451    70.75120239910001    R3
Au    11.680000    6.743451    70.75120239910001    R3
Au    5.840000    6.743451    70.75120239910001    R3
Au    14.600000    6.743451    70.75120239910001    R3
Au    8.760000    6.743451    70.75120239910001    R3
Au    17.520000    6.743451    70.75120239910001    R3
