     118
 i =      389, E =     -1610.9443005067
 Au         1.6649000000        0.0000000000        0.0000000000
 Au         6.6598000000        0.0000000000        0.0000000000
 Au         4.1623000000        1.4419000000        0.0000000000
 Au         9.1572000000        1.4419000000        0.0000000000
 Au         6.6598000000        2.8838000000        0.0000000000
 Au        11.6546000000        2.8838000000        0.0000000000
 Au         4.1623000000        4.3256000000        0.0000000000
 Au         9.1572000000        4.3256000000        0.0000000000
 Au         6.6598000000        5.7675000000        0.0000000000
 Au        11.6546000000        5.7675000000        0.0000000000
 Au         9.1572000000        7.2094000000        0.0000000000
 Au        14.1520000000        7.2094000000        0.0000000000
 Au         3.3299000000        0.0000000000        2.3546000000
 Au         8.3247000000        0.0000000000        2.3546000000
 Au         5.8273000000        1.4419000000        2.3546000000
 Au        10.8221000000        1.4419000000        2.3546000000
 Au         8.3247000000        2.8838000000        2.3546000000
 Au        13.3195000000        2.8838000000        2.3546000000
 Au         5.8273000000        4.3256000000        2.3546000000
 Au        10.8221000000        4.3256000000        2.3546000000
 Au         8.3247000000        5.7675000000        2.3546000000
 Au        13.3195000000        5.7675000000        2.3546000000
 Au        10.8221000000        7.2094000000        2.3546000000
 Au        15.8169000000        7.2094000000        2.3546000000
 Au         0.0000000000        0.0000000000        4.7091000000
 Au         4.9948000000        0.0000000000        4.7091000000
 Au         2.4974000000        1.4419000000        4.7091000000
 Au         7.4922000000        1.4419000000        4.7091000000
 Au         4.9948000000        2.8838000000        4.7091000000
 Au         9.9896000000        2.8838000000        4.7091000000
 Au         2.4974000000        4.3256000000        4.7091000000
 Au         7.4922000000        4.3256000000        4.7091000000
 Au         4.9948000000        5.7675000000        4.7091000000
 Au         9.9896000000        5.7675000000        4.7091000000
 Au         7.4922000000        7.2094000000        4.7091000000
 Au        12.4870000000        7.2094000000        4.7091000000
  C        10.7649744355        3.4582536567       18.5048247599
  C        10.9546888867        2.1041890658       18.0278168673
  C        10.9174283115        2.1181828050       16.5809659194
  C        10.6977110713        3.5118775557       16.1550739416
  C        10.6040690722        4.3205923006       17.3513800366
  C         9.7104791725        5.3935967662       17.4127907532
  C         8.8703739674        5.6796572406       16.2784749087
  C         8.9601911890        4.8726460348       15.1365510024
  C         9.9065796827        3.7941432254       15.0585245244
  C         9.4321791672        2.7460838934       14.0540724301
  C         9.6786256769        1.2152679009       14.5157451975
  C        10.3416557935        1.0723565899       15.8866723772
  C         9.7376034008        0.0005456610       16.6267563681
  C         9.7863842405       -0.0435482425       18.0276362286
  C        10.4145966141        1.0327502683       18.7483577983
  C         9.6494806277        1.2776962390       19.9560944820
  C         8.5405493650        0.3393975126       19.9795544807
  C         8.6274611668       -0.4797752868       18.7839645945
  C         7.4669560648       -0.8687174224       18.1131964404
  C         7.4195559232       -0.8383850999       16.6613460530
  C         8.5334330680       -0.4030096761       15.9306404430
  C         8.3879789016        0.4249031850       14.7639159499
  C         7.1269343505        0.8462665407       14.3899131789
  C         6.9027185834        2.2426106557       13.9636037918
  C         7.9537371753        3.1371272187       13.9373104242
  C         7.7549540709        4.4692843367       14.4402787792
  C         6.5013682305        4.8950787005       14.9055507210
  C         6.4138976550        5.7191401465       16.0995582492
  C         7.5751859869        6.1066247216       16.7711904092
  C         7.6224493066        6.0820212298       18.2219444592
  C         6.5050590547        5.6664114276       18.9515431590
  C         5.2993823055        5.2586428782       18.2526225404
  C         5.2543111263        5.2863778050       16.8545377236
  C         4.6285266139        4.1999847575       16.1240482367
  C         5.4003587998        3.9629080281       14.9194708356
  C         5.6068576701        2.6519254072       14.4643938819
  C         5.0292680328        1.5380975214       15.1928322750
  C         5.9650314917        0.4306072567       15.1454228302
  C         6.1057378773       -0.4054709119       16.2608078640
  C         5.3333931040       -0.1563656820       17.4597558698
  C         6.1723011103       -0.4459409621       18.6081210888
  C         6.0816168738        0.3433904379       19.7586709269
  C         7.2897378910        0.7458917723       20.4581995272
  C         7.0997746142        2.1045488073       20.9328120006
  C         5.7740379825        2.5404987031       20.5289012041
  C         5.1457610623        1.4513234894       19.8027447955
  C         4.3359613322        1.7243700522       18.6946119061
  C         4.4290673462        0.9052669796       17.5045574346
  C         4.2739826183        1.7688474117       16.3472347436
  C         4.0777547231        3.1240534693       16.8260199777
  C         4.1199305497        3.0978071508       18.2734867442
  C         4.7184685264        4.1465045886       18.9777446458
  C         5.5634494598        3.8633300308       20.1241480976
  C         6.6696243608        4.8033968716       20.1071989714
  C         7.9490941967        4.3839021476       20.4903895582
  C         8.1691830099        3.0078571180       20.9111797876
  C         9.4637484513        2.5876997216       20.4128540705
  C        10.0412709554        3.6993086725       19.6765573217
  C         9.1069908716        4.8100900088       19.7316733062
  C         8.9471803237        5.6409334117       18.6178739607
  C        10.5165422946        0.6007347998       13.3436279821
  C        10.1566176510        2.8450740152       12.6758485882
  C        10.1135824818        1.4217704372       12.1161224495
  H         9.0642149780        1.1810352099       11.8657820037
  H        10.3360079496       -0.4779882443       13.2432961599
  H        11.5897173811        0.7420354629       13.5509685853
  H        11.2052072917        3.1457160948       12.8364053959
  H         9.6899289788        3.5970920827       12.0272084570
  C        10.4942367735        2.0783888727        9.7156620618
  C        11.2264761031        3.2037514634        9.3082733697
  C        10.7193821182        4.0981982570        8.3662689705
  C         9.4445186402        3.8874080282        7.8128223255
  C         9.2551750114        1.8402499243        9.0972297676
  C         8.7289905101        2.7273714407        8.1615910958
  H        12.2066870168        3.3956897524        9.7493628664
  H         8.6779661249        0.9532872808        9.3668419805
  H         7.7521881753        2.5409192308        7.7143219306
  H        11.2951252978        4.9773160745        8.0763133453
  S         8.6658053136        5.1877433350        6.8872550454
  C        10.9654778958        1.2007200877       10.8521639315
  H        12.0228906323        1.4130252987       11.0791786884
  H        10.9074788229        0.1387649753       10.5622562154
Au      8.324700    5.767500    45.4192882128 R0
Au      1.664900    0.000000    47.773891212799995 R0
Au      6.659800    0.000000    47.773891212799995 R0
Au      4.162300    1.441900    47.773891212799995 R0
Au      9.157200    1.441900    47.773891212799995 R0
Au      6.659800    2.883800    47.773891212799995 R0
Au      11.654600    2.883800    47.773891212799995 R0
Au      4.162300    4.325600    47.773891212799995 R0
Au      9.157200    4.325600    47.773891212799995 R0
Au      6.659800    5.767500    47.773891212799995 R0
Au      11.654600    5.767500    47.773891212799995 R0
Au      9.157200    7.209400    47.773891212799995 R0
Au      14.152000    7.209400    47.773891212799995 R0
Au      3.329900    0.000000    50.128493212799995 R0
Au      8.324700    0.000000    50.128493212799995 R0
Au      5.827300    1.441900    50.128493212799995 R0
Au      10.822100    1.441900    50.128493212799995 R0
Au      8.324700    2.883800    50.128493212799995 R0
Au      13.319500    2.883800    50.128493212799995 R0
Au      5.827300    4.325600    50.128493212799995 R0
Au      10.822100    4.325600    50.128493212799995 R0
Au      8.324700    5.767500    50.128493212799995 R0
Au      13.319500    5.767500    50.128493212799995 R0
Au      10.822100    7.209400    50.128493212799995 R0
Au      15.816900    7.209400    50.128493212799995 R0
Au      0.000000    0.000000    52.4828902128 R0
Au      4.994800    0.000000    52.483089212799996 R0
Au      2.497400    1.441900    52.483089212799996 R0
Au      7.492200    1.441900    52.483089212799996 R0
Au      4.994800    2.883800    52.483089212799996 R0
Au      9.989600    2.883800    52.483089212799996 R0
Au      2.497400    4.325600    52.483089212799996 R0
Au      7.492200    4.325600    52.483089212799996 R0
Au      4.994800    5.767500    52.483089212799996 R0
Au      9.989600    5.767500    52.483089212799996 R0
Au      7.492200    7.209400    52.483089212799996 R0
Au      12.487000    7.209400    52.483089212799996 R0
Au      1.664900    0.000000    54.8375922128 R1
Au      6.659800    0.000000    54.8375922128 R1
Au      4.162300    1.441900    54.8375922128 R1
Au      9.157200    1.441900    54.8375922128 R1
Au      6.659800    2.883800    54.8375922128 R1
Au      11.654600    2.883800    54.8375922128 R1
Au      4.162300    4.325600    54.8375922128 R1
Au      9.157200    4.325600    54.8375922128 R1
Au      6.659800    5.767500    54.8375922128 R1
Au      11.654600    5.767500    54.8375922128 R1
Au      9.157200    7.209400    54.8375922128 R1
Au      14.152000    7.209400    54.8375922128 R1
Au      3.329900    0.000000    57.1921912128 R1
Au      8.324700    0.000000    57.1921912128 R1
Au      5.827300    1.441900    57.1921912128 R1
Au      10.822100    1.441900    57.1921912128 R1
Au      8.324700    2.883800    57.1921912128 R1
Au      13.319500    2.883800    57.1921912128 R1
Au      5.827300    4.325600    57.1921912128 R1
Au      10.822100    4.325600    57.1921912128 R1
Au      8.324700    5.767500    57.1921912128 R1
Au      13.319500    5.767500    57.1921912128 R1
Au      10.822100    7.209400    57.1921912128 R1
Au      15.816900    7.209400    57.1921912128 R1
Au      0.000000    0.000000    59.5467862128 R1
Au      4.994800    0.000000    59.5467862128 R1
Au      2.497400    1.441900    59.5467862128 R1
Au      7.492200    1.441900    59.5467862128 R1
Au      4.994800    2.883800    59.5467862128 R1
Au      9.989600    2.883800    59.5467862128 R1
Au      2.497400    4.325600    59.5467862128 R1
Au      7.492200    4.325600    59.5467862128 R1
Au      4.994800    5.767500    59.5467862128 R1
Au      9.989600    5.767500    59.5467862128 R1
Au      7.492200    7.209400    59.5467862128 R1
Au      12.487000    7.209400    59.5467862128 R1
Au      1.664900    0.000000    61.9013910128 R2
Au      6.659800    0.000000    61.9013910128 R2
Au      4.162300    1.441900    61.9013910128 R2
Au      9.157200    1.441900    61.9013910128 R2
Au      6.659800    2.883800    61.9013910128 R2
Au      11.654600    2.883800    61.9013910128 R2
Au      4.162300    4.325600    61.9013910128 R2
Au      9.157200    4.325600    61.9013910128 R2
Au      6.659800    5.767500    61.9013910128 R2
Au      11.654600    5.767500    61.9013910128 R2
Au      9.157200    7.209400    61.9013910128 R2
Au      14.152000    7.209400    61.9013910128 R2
Au      3.329900    0.000000    64.2559905128 R2
Au      8.324700    0.000000    64.2559905128 R2
Au      5.827300    1.441900    64.2559905128 R2
Au      10.822100    1.441900    64.2559905128 R2
Au      8.324700    2.883800    64.2559905128 R2
Au      13.319500    2.883800    64.2559905128 R2
Au      5.827300    4.325600    64.2559905128 R2
Au      10.822100    4.325600    64.2559905128 R2
Au      8.324700    5.767500    64.2559905128 R2
Au      13.319500    5.767500    64.2559905128 R2
Au      10.822100    7.209400    64.2559905128 R2
Au      15.816900    7.209400    64.2559905128 R2
Au      0.000000    0.000000    66.6105975128 R2
Au      4.994800    0.000000    66.6105975128 R2
Au      2.497400    1.441900    66.6105975128 R2
Au      7.492200    1.441900    66.6105975128 R2
Au      4.994800    2.883800    66.6105975128 R2
Au      9.989600    2.883800    66.6105975128 R2
Au      2.497400    4.325600    66.6105975128 R2
Au      7.492200    4.325600    66.6105975128 R2
Au      4.994800    5.767500    66.6105975128 R2
Au      9.989600    5.767500    66.6105975128 R2
Au      7.492200    7.209400    66.6105975128 R2
Au      12.487000    7.209400    66.6105975128 R2
Au      1.664900    0.000000    68.96519101279999 R3
Au      6.659800    0.000000    68.96519101279999 R3
Au      4.162300    1.441900    68.96519101279999 R3
Au      9.157200    1.441900    68.96519101279999 R3
Au      6.659800    2.883800    68.96519101279999 R3
Au      11.654600    2.883800    68.96519101279999 R3
Au      4.162300    4.325600    68.96519101279999 R3
Au      9.157200    4.325600    68.96519101279999 R3
Au      6.659800    5.767500    68.96519101279999 R3
Au      11.654600    5.767500    68.96519101279999 R3
Au      9.157200    7.209400    68.96519101279999 R3
Au      14.152000    7.209400    68.96519101279999 R3
Au      3.329900    0.000000    71.3197905128 R3
Au      8.324700    0.000000    71.3197905128 R3
Au      5.827300    1.441900    71.3197905128 R3
Au      10.822100    1.441900    71.3197905128 R3
Au      8.324700    2.883800    71.3197905128 R3
Au      13.319500    2.883800    71.3197905128 R3
Au      5.827300    4.325600    71.3197905128 R3
Au      10.822100    4.325600    71.3197905128 R3
Au      8.324700    5.767500    71.3197905128 R3
Au      13.319500    5.767500    71.3197905128 R3
Au      10.822100    7.209400    71.3197905128 R3
Au      15.816900    7.209400    71.3197905128 R3
Au      0.000000    0.000000    73.6743975128 R3
Au      4.994800    0.000000    73.6743975128 R3
Au      2.497400    1.441900    73.6743975128 R3
Au      7.492200    1.441900    73.6743975128 R3
Au      4.994800    2.883800    73.6743975128 R3
Au      9.989600    2.883800    73.6743975128 R3
Au      2.497400    4.325600    73.6743975128 R3
Au      7.492200    4.325600    73.6743975128 R3
Au      4.994800    5.767500    73.6743975128 R3
Au      9.989600    5.767500    73.6743975128 R3
Au      7.492200    7.209400    73.6743975128 R3
Au      12.487000    7.209400    73.6743975128 R3