     118
 i =       80, E =     -1610.9160011582
 Au         1.6649000000        0.0000000000        0.0000000000
 Au         6.6598000000        0.0000000000        0.0000000000
 Au         4.1623000000        1.4419000000        0.0000000000
 Au         9.1572000000        1.4419000000        0.0000000000
 Au         6.6598000000        2.8838000000        0.0000000000
 Au        11.6546000000        2.8838000000        0.0000000000
 Au         4.1623000000        4.3256000000        0.0000000000
 Au         9.1572000000        4.3256000000        0.0000000000
 Au         6.6598000000        5.7675000000        0.0000000000
 Au        11.6546000000        5.7675000000        0.0000000000
 Au         9.1572000000        7.2094000000        0.0000000000
 Au        14.1520000000        7.2094000000        0.0000000000
 Au         3.3299000000        0.0000000000        2.3546000000
 Au         8.3247000000        0.0000000000        2.3546000000
 Au         5.8273000000        1.4419000000        2.3546000000
 Au        10.8221000000        1.4419000000        2.3546000000
 Au         8.3247000000        2.8838000000        2.3546000000
 Au        13.3195000000        2.8838000000        2.3546000000
 Au         5.8273000000        4.3256000000        2.3546000000
 Au        10.8221000000        4.3256000000        2.3546000000
 Au         8.3247000000        5.7675000000        2.3546000000
 Au        13.3195000000        5.7675000000        2.3546000000
 Au        10.8221000000        7.2094000000        2.3546000000
 Au        15.8169000000        7.2094000000        2.3546000000
 Au         0.0000000000        0.0000000000        4.7091000000
 Au         4.9948000000        0.0000000000        4.7091000000
 Au         2.4974000000        1.4419000000        4.7091000000
 Au         7.4922000000        1.4419000000        4.7091000000
 Au         4.9948000000        2.8838000000        4.7091000000
 Au         9.9896000000        2.8838000000        4.7091000000
 Au         2.4974000000        4.3256000000        4.7091000000
 Au         7.4922000000        4.3256000000        4.7091000000
 Au         4.9948000000        5.7675000000        4.7091000000
 Au         9.9896000000        5.7675000000        4.7091000000
 Au         7.4922000000        7.2094000000        4.7091000000
 Au        12.4870000000        7.2094000000        4.7091000000
  H         3.9564339215        0.6712093053        9.2978054043
  C         4.3303491441        1.6241027398        8.9183570693
  C         3.6010368314        2.7971221009        9.1695335176
  C         4.1103613369        4.0044496883        8.6632726213
  H         3.5686178564        4.9375464464        8.8247155913
  C         5.3026349775        4.0445941144        7.9433506383
  H         5.6852665842        4.9950953928        7.5701556022
  C         6.0206048013        2.8600555966        7.6939869707
  C         5.5159017822        1.6432550948        8.1855975149
  H         6.0588061977        0.7175605810        7.9944278761
  C         2.2919766352        2.7394906818        9.9231321656
  C         2.1198188371        3.8001162833       11.0306303446
  H         2.1765991811        4.7960154271       10.5636267683
  H         1.4637903729        2.8692903791        9.2039610809
  H         2.1662688355        1.7305052624       10.3425018724
  C         0.7748296481        3.6715476519       11.7627371763
  C         3.1574136607        3.7206049392       12.1641815694
  C        -0.6226698845        1.5506708117       18.7098176247
  C         0.0361573927        0.4209520156       19.3367421942
  C        -0.5697840711       -0.7930509163       18.8276102466
  C        -1.6094687430       -0.4172636938       17.8820884775
  C        -1.6360145631        1.0323798095       17.8052063164
  C        -1.8618728857        1.6562639454       16.5749488195
  C        -2.0873910824        0.8698634412       15.3777514784
  C        -2.0707576143       -0.5256563428       15.4537411922
  C        -1.8168210999       -1.1764058550       16.7285454844
  C        -0.9917312912       -2.3415370771       16.4717260548
  C         0.0078430693       -2.7042896908       17.3764812237
  C         0.2238082934       -1.9192021782       18.5795823846
  C         1.6491139549       -1.8759820411       18.8365975027
  C         2.2367541635       -0.7062075571       19.3332556608
  C         1.4188357275        0.4639673809       19.5848846639
  C         2.1845323724        1.6384753742       19.2144408964
  C         3.4795709140        1.1918530482       18.7257357192
  C         3.5160565114       -0.2585828599       18.8053200284
  C         4.1566754435       -0.9931876613       17.8045447774
  C         3.5452483331       -2.2059353329       17.2890137205
  C         2.3172579996       -2.6374123093       17.7942257736
  C         1.3013061695       -3.1483370354       16.8905735044
  C         1.5490485348       -3.2041115374       15.5157847120
  C         0.5122896893       -2.8222785670       14.5751055812
  C        -0.7399656021       -2.4048299947       15.0443149853
  C        -1.4088970948       -1.2865790773       14.4141200928
  C        -0.7993900365       -0.6227168828       13.3410533145
  C        -0.8203926281        0.8269544705       13.2625495172
  C        -1.4612155417        1.5515642207       14.2612490913
  C        -0.8236342204        2.7647239482       14.7804273274
  C         0.3840569673        3.1998130239       14.2617222016
  C         0.9875696924        2.6749533216       12.9547193014
  C         0.4500143445        1.2845082039       12.7116871401
  C         1.2507503280        0.1622009818       12.5059329159
  C         0.4974541666       -1.0462697240       12.8716307674
  C         1.1364559593       -2.1245560063       13.4733627199
  C         2.5791457578       -2.0809841133       13.7320970007
  C         2.8241369937       -2.7515307491       14.9902558236
  C         3.8067756722       -2.2653452181       15.8616869970
  C         4.5785015729       -1.0996170324       15.4919328190
  C         4.7924180811       -0.3126988531       16.6900749823
  C         4.7524750623        1.0820463125       16.6097813405
  C         4.0808467633        1.8424327646       17.6445695356
  C         3.4058646607        2.9567331122       17.0062789238
  C         3.6584939542        2.8993722030       15.5860211402
  C         4.5090521355        1.7348743311       15.3361754876
  C         4.2985693191        0.9847747016       14.1854458832
  C         4.3412812389       -0.4628284121       14.2668635781
  C         3.3184903703       -0.9589028885       13.3792992573
  C         2.6661543661        0.2049592004       12.7600544120
  C         3.2728896577        1.3703123505       13.2223659760
  C         2.6027812850        2.7228932331       13.2407903790
  C         2.6853410292        3.2711418839       14.6719358567
  C         1.3985366940        3.6685640790       15.1558471089
  C         1.1469658693        3.7623801356       16.5459228331
  C         2.1725171653        3.4023271413       17.4905373710
  C         1.5471466429        2.7281632611       18.6115345564
  C         0.1167531112        2.6832674435       18.3543797837
  C        -0.1201718415        3.3291783290       17.0784071421
  C        -1.0803944872        2.8179106521       16.2008454531
  H         4.1538572225        3.4210475985       11.8142051469
  H         3.2628509163        4.7103240763       12.6306585113
  S         7.6168865477        2.9011414232        6.9110588600
  H         0.4857286263        4.6484565822       12.1780008991
  H        -0.0433431349        3.3430408042       11.1075009895