      76
 i =       79, E =     -1888.0459739779
 Au         0.0000000000        0.0000000000        0.0000000000
 Au         2.9200000000        0.0000000000        0.0000000000
 Au         5.8400000000        0.0000000000        0.0000000000
 Au         1.4600000000        2.5287941680        0.0000000000
 Au         4.3800000000        2.5287941680        0.0000000000
 Au         7.3000000000        2.5287941680        0.0000000000
 Au         2.9200000000        5.0575883360        0.0000000000
 Au         5.8400000000        5.0575883360        0.0000000000
 Au         8.7600000000        5.0575883360        0.0000000000
 Au         1.4600000000        0.8429312920        2.3841700720
 Au         4.3800000000        0.8429312920        2.3841700720
 Au         7.3000000000        0.8429312920        2.3841700720
 Au         2.9200000000        3.3717254600        2.3841700720
 Au         5.8400000000        3.3717254600        2.3841700720
 Au         8.7600000000        3.3717254600        2.3841700720
 Au         4.3800000000        5.9005196280        2.3841700720
 Au         7.3000000000        5.9005196280        2.3841700720
 Au        10.2200000000        5.9005196280        2.3841700720
 Au         0.0000000000        1.6858628760        4.7683401440
 Au         2.9200000000        1.6858628760        4.7683401440
 Au         5.8400000000        1.6858628760        4.7683401440
 Au         1.4600000000        4.2146570440        4.7683401440
 Au         4.3800000000        4.2146570440        4.7683401440
 Au         7.3000000000        4.2146570440        4.7683401440
 Au         2.9200000000        6.7434512120        4.7683401440
 Au         5.8400000000        6.7434512120        4.7683401440
 Au         8.7600000000        6.7434512120        4.7683401440
  C         3.7482026424        2.7982282848       15.7732463229
  C         3.8922112495        4.0297678852       15.1042115657
  C         3.7819187503        4.0915736962       13.7181681068
  C         3.5155946381        2.9421005703       12.9414180869
  C         3.4156416816        1.6534736108       15.0205439267
  C         3.3036682641        1.7309466345       13.6369856193
  C         3.5311483172        2.9763248889       11.4636655158
  H         3.8999909480        5.0581488700       13.2267571031
  S         4.1762815126        2.6218087296       17.4863510263
  H         3.2912252830        0.6956129495       15.5255819965
  H         3.1061184795        0.8161944318       13.0770145781
  H         4.1130203174        4.9306651301       15.6767301307
  C         4.3806514147        3.8651078017       10.7681952968
  C         4.5078405294        3.8227139540        9.3844362402
  C         3.7813614302        2.8781757732        8.6312739992
  C         2.8744481586        2.0322988095        9.3002326674
  C         2.7613300424        2.0823930105       10.6864885379
  H         5.2057990644        4.4901981807        8.8791960354
  H         5.0009899539        4.5652565794       11.3286602274
  H         2.2783180131        1.3219628876        8.7273339941
  H         2.0533225512        1.4140736646       11.1781859784
  S         4.1792776342        2.6370985141        6.9187851954
 Au         8.7600000000        6.7434512120       19.6368044047
 Au         5.8400000000        6.7434512120       19.6368044047
 Au         2.9200000000        6.7434512120       19.6368044047
 Au         7.3000000000        4.2146570440       19.6368044047
 Au         4.3800000000        4.2146570440       19.6368044047
 Au         1.4600000000        4.2146570440       19.6368044047
 Au         5.8400000000        1.6858628760       19.6368044047
 Au         2.9200000000        1.6858628760       19.6368044047
 Au         0.0000000000        1.6858628760       19.6368044047
 Au        10.2200000000        5.9005196280       22.0209744767
 Au         7.3000000000        5.9005196280       22.0209744767
 Au         4.3800000000        5.9005196280       22.0209744767
 Au         8.7600000000        3.3717254600       22.0209744767
 Au         5.8400000000        3.3717254600       22.0209744767
 Au         2.9200000000        3.3717254600       22.0209744767
 Au         7.3000000000        0.8429312920       22.0209744767
 Au         4.3800000000        0.8429312920       22.0209744767
 Au         1.4600000000        0.8429312920       22.0209744767
 Au         8.7600000000        5.0575883360       24.4051445487
 Au         5.8400000000        5.0575883360       24.4051445487
 Au         2.9200000000        5.0575883360       24.4051445487
 Au         7.3000000000        2.5287941680       24.4051445487
 Au         4.3800000000        2.5287941680       24.4051445487
 Au         1.4600000000        2.5287941680       24.4051445487
 Au         5.8400000000        0.0000000000       24.4051445487
 Au         2.9200000000        0.0000000000       24.4051445487
 Au         0.0000000000        0.0000000000       24.4051445487
Au    8.7600000000    6.7434512120    48.496850280000004    R1
Au    5.8400000000    6.7434512120    48.496850280000004    R1
Au    2.9200000000    6.7434512120    48.496850280000004    R1
Au    7.3000000000    4.2146570440    48.496850280000004    R1
Au    4.3800000000    4.2146570440    48.496850280000004    R1
Au    1.4600000000    4.2146570440    48.496850280000004    R1
Au    5.8400000000    1.6858628760    48.496850280000004    R1
Au    2.9200000000    1.6858628760    48.496850280000004    R1
Au    0.0000000000    1.6858628760    48.496850280000004    R1
Au    10.2200000000    5.9005196280    50.88102035200001    R1
Au    7.3000000000    5.9005196280    50.88102035200001    R1
Au    4.3800000000    5.9005196280    50.88102035200001    R1
Au    8.7600000000    3.3717254600    50.88102035200001    R1
Au    5.8400000000    3.3717254600    50.88102035200001    R1
Au    2.9200000000    3.3717254600    50.88102035200001    R1
Au    7.3000000000    0.8429312920    50.88102035200001    R1
Au    4.3800000000    0.8429312920    50.88102035200001    R1
Au    1.4600000000    0.8429312920    50.88102035200001    R1
Au    8.7600000000    5.0575883360    53.265190424000004    R1
Au    5.8400000000    5.0575883360    53.265190424000004    R1
Au    2.9200000000    5.0575883360    53.265190424000004    R1
Au    7.3000000000    2.5287941680    53.265190424000004    R1
Au    4.3800000000    2.5287941680    53.265190424000004    R1
Au    1.4600000000    2.5287941680    53.265190424000004    R1
Au    5.8400000000    0.0000000000    53.265190424000004    R1
Au    2.9200000000    0.0000000000    53.265190424000004    R1
Au    0.0000000000    0.0000000000    53.265190424000004    R1
Au    8.7600000000    6.7434512120    55.649360204000004    R2
Au    5.8400000000    6.7434512120    55.649360204000004    R2
Au    2.9200000000    6.7434512120    55.649360204000004    R2
Au    7.3000000000    4.2146570440    55.649360204000004    R2
Au    4.3800000000    4.2146570440    55.649360204000004    R2
Au    1.4600000000    4.2146570440    55.649360204000004    R2
Au    5.8400000000    1.6858628760    55.649360204000004    R2
Au    2.9200000000    1.6858628760    55.649360204000004    R2
Au    0.0000000000    1.6858628760    55.649360204000004    R2
Au    10.2200000000    5.9005196280    58.03353027600001    R2
Au    7.3000000000    5.9005196280    58.03353027600001    R2
Au    4.3800000000    5.9005196280    58.03353027600001    R2
Au    8.7600000000    3.3717254600    58.03353027600001    R2
Au    5.8400000000    3.3717254600    58.03353027600001    R2
Au    2.9200000000    3.3717254600    58.03353027600001    R2
Au    7.3000000000    0.8429312920    58.03353027600001    R2
Au    4.3800000000    0.8429312920    58.03353027600001    R2
Au    1.4600000000    0.8429312920    58.03353027600001    R2
Au    8.7600000000    5.0575883360    60.417700348000004    R2
Au    5.8400000000    5.0575883360    60.417700348000004    R2
Au    2.9200000000    5.0575883360    60.417700348000004    R2
Au    7.3000000000    2.5287941680    60.417700348000004    R2
Au    4.3800000000    2.5287941680    60.417700348000004    R2
Au    1.4600000000    2.5287941680    60.417700348000004    R2
Au    5.8400000000    0.0000000000    60.417700348000004    R2
Au    2.9200000000    0.0000000000    60.417700348000004    R2
Au    0.0000000000    0.0000000000    60.417700348000004    R2
Au    8.7600000000    6.7434512120    62.801870128000004    R3
Au    5.8400000000    6.7434512120    62.801870128000004    R3
Au    2.9200000000    6.7434512120    62.801870128000004    R3
Au    7.3000000000    4.2146570440    62.801870128000004    R3
Au    4.3800000000    4.2146570440    62.801870128000004    R3
Au    1.4600000000    4.2146570440    62.801870128000004    R3
Au    5.8400000000    1.6858628760    62.801870128000004    R3
Au    2.9200000000    1.6858628760    62.801870128000004    R3
Au    0.0000000000    1.6858628760    62.801870128000004    R3
Au    10.2200000000    5.9005196280    65.18604020000001    R3
Au    7.3000000000    5.9005196280    65.18604020000001    R3
Au    4.3800000000    5.9005196280    65.18604020000001    R3
Au    8.7600000000    3.3717254600    65.18604020000001    R3
Au    5.8400000000    3.3717254600    65.18604020000001    R3
Au    2.9200000000    3.3717254600    65.18604020000001    R3
Au    7.3000000000    0.8429312920    65.18604020000001    R3
Au    4.3800000000    0.8429312920    65.18604020000001    R3
Au    1.4600000000    0.8429312920    65.18604020000001    R3
Au    8.7600000000    5.0575883360    67.570210272    R3
Au    5.8400000000    5.0575883360    67.570210272    R3
Au    2.9200000000    5.0575883360    67.570210272    R3
Au    7.3000000000    2.5287941680    67.570210272    R3
Au    4.3800000000    2.5287941680    67.570210272    R3
Au    1.4600000000    2.5287941680    67.570210272    R3
Au    5.8400000000    0.0000000000    67.570210272    R3
Au    2.9200000000    0.0000000000    67.570210272    R3
Au    0.0000000000    0.0000000000    67.570210272    R3
