     238
 i =       71, E =     -1888.0436785968
 Au         0.0000000000        0.0000000000        0.0000000000 L3
 Au         2.9200000000        0.0000000000        0.0000000000 L3
 Au         5.8400000000        0.0000000000        0.0000000000 L3
 Au         1.4600000000        2.5287941680        0.0000000000 L3
 Au         4.3800000000        2.5287941680        0.0000000000 L3
 Au         7.3000000000        2.5287941680        0.0000000000 L3
 Au         2.9200000000        5.0575883360        0.0000000000 L3
 Au         5.8400000000        5.0575883360        0.0000000000 L3
 Au         8.7600000000        5.0575883360        0.0000000000 L3
 Au         1.4600000000        0.8429312920        2.3841700720 L3
 Au         4.3800000000        0.8429312920        2.3841700720 L3
 Au         7.3000000000        0.8429312920        2.3841700720 L3
 Au         2.9200000000        3.3717254600        2.3841700720 L3
 Au         5.8400000000        3.3717254600        2.3841700720 L3
 Au         8.7600000000        3.3717254600        2.3841700720 L3
 Au         4.3800000000        5.9005196280        2.3841700720 L3
 Au         7.3000000000        5.9005196280        2.3841700720 L3
 Au        10.2200000000        5.9005196280        2.3841700720 L3
 Au         0.0000000000        1.6858628760        4.7683401440 L3
 Au         2.9200000000        1.6858628760        4.7683401440 L3
 Au         5.8400000000        1.6858628760        4.7683401440 L3
 Au         1.4600000000        4.2146570440        4.7683401440 L3
 Au         4.3800000000        4.2146570440        4.7683401440 L3
 Au         7.3000000000        4.2146570440        4.7683401440 L3
 Au         2.9200000000        6.7434512120        4.7683401440 L3
 Au         5.8400000000        6.7434512120        4.7683401440 L3
 Au         8.7600000000        6.7434512120        4.7683401440 L3
 Au         0.0000000000        0.0000000000        7.1525099240 L2
 Au         2.9200000000        0.0000000000        7.1525099240 L2
 Au         5.8400000000        0.0000000000        7.1525099240 L2
 Au         1.4600000000        2.5287941680        7.1525099240 L2
 Au         4.3800000000        2.5287941680        7.1525099240 L2
 Au         7.3000000000        2.5287941680        7.1525099240 L2
 Au         2.9200000000        5.0575883360        7.1525099240 L2
 Au         5.8400000000        5.0575883360        7.1525099240 L2
 Au         8.7600000000        5.0575883360        7.1525099240 L2
 Au         1.4600000000        0.8429312920        9.5366799960 L2
 Au         4.3800000000        0.8429312920        9.5366799960 L2
 Au         7.3000000000        0.8429312920        9.5366799960 L2
 Au         2.9200000000        3.3717254600        9.5366799960 L2
 Au         5.8400000000        3.3717254600        9.5366799960 L2
 Au         8.7600000000        3.3717254600        9.5366799960 L2
 Au         4.3800000000        5.9005196280        9.5366799960 L2
 Au         7.3000000000        5.9005196280        9.5366799960 L2
 Au        10.2200000000        5.9005196280        9.5366799960 L2
 Au         0.0000000000        1.6858628760       11.9208500680 L2
 Au         2.9200000000        1.6858628760       11.9208500680 L2
 Au         5.8400000000        1.6858628760       11.9208500680 L2
 Au         1.4600000000        4.2146570440       11.9208500680 L2
 Au         4.3800000000        4.2146570440       11.9208500680 L2
 Au         7.3000000000        4.2146570440       11.9208500680 L2
 Au         2.9200000000        6.7434512120       11.9208500680 L2
 Au         5.8400000000        6.7434512120       11.9208500680 L2
 Au         8.7600000000        6.7434512120       11.9208500680 L2
 Au         0.0000000000        0.0000000000       14.3050198480 L1
 Au         2.9200000000        0.0000000000       14.3050198480 L1
 Au         5.8400000000        0.0000000000       14.3050198480 L1
 Au         1.4600000000        2.5287941680       14.3050198480 L1
 Au         4.3800000000        2.5287941680       14.3050198480 L1
 Au         7.3000000000        2.5287941680       14.3050198480 L1
 Au         2.9200000000        5.0575883360       14.3050198480 L1
 Au         5.8400000000        5.0575883360       14.3050198480 L1
 Au         8.7600000000        5.0575883360       14.3050198480 L1
 Au         1.4600000000        0.8429312920       16.6891899200 L1
 Au         4.3800000000        0.8429312920       16.6891899200 L1
 Au         7.3000000000        0.8429312920       16.6891899200 L1
 Au         2.9200000000        3.3717254600       16.6891899200 L1
 Au         5.8400000000        3.3717254600       16.6891899200 L1
 Au         8.7600000000        3.3717254600       16.6891899200 L1
 Au         4.3800000000        5.9005196280       16.6891899200 L1
 Au         7.3000000000        5.9005196280       16.6891899200 L1
 Au        10.2200000000        5.9005196280       16.6891899200 L1
 Au         0.0000000000        1.6858628760       19.0733599920 L1
 Au         2.9200000000        1.6858628760       19.0733599920 L1
 Au         5.8400000000        1.6858628760       19.0733599920 L1
 Au         1.4600000000        4.2146570440       19.0733599920 L1
 Au         4.3800000000        4.2146570440       19.0733599920 L1
 Au         7.3000000000        4.2146570440       19.0733599920 L1
 Au         2.9200000000        6.7434512120       19.0733599920 L1
 Au         5.8400000000        6.7434512120       19.0733599920 L1
 Au         8.7600000000        6.7434512120       19.0733599920 L1
Au    0.0000000000    0.0000000000    21.457530064    L0
Au    2.9200000000    0.0000000000    21.457530064    L0
Au    5.8400000000    0.0000000000    21.457530064    L0
Au    1.4600000000    2.5287941680    21.457530064    L0
Au    4.3800000000    2.5287941680    21.457530064    L0
Au    7.3000000000    2.5287941680    21.457530064    L0
Au    2.9200000000    5.0575883360    21.457530064    L0
Au    5.8400000000    5.0575883360    21.457530064    L0
Au    8.7600000000    5.0575883360    21.457530064    L0
Au    1.4600000000    0.8429312920    23.841700136    L0
Au    4.3800000000    0.8429312920    23.841700136    L0
Au    7.3000000000    0.8429312920    23.841700136    L0
Au    2.9200000000    3.3717254600    23.841700136    L0
Au    5.8400000000    3.3717254600    23.841700136    L0
Au    8.7600000000    3.3717254600    23.841700136    L0
Au    4.3800000000    5.9005196280    23.841700136    L0
Au    7.3000000000    5.9005196280    23.841700136    L0
Au    10.2200000000    5.9005196280    23.841700136    L0
Au    0.0000000000    1.6858628760    26.225870208    L0
Au    2.9200000000    1.6858628760    26.225870208    L0
Au    5.8400000000    1.6858628760    26.225870208    L0
Au    1.4600000000    4.2146570440    26.225870208    L0
Au    4.3800000000    4.2146570440    26.225870208    L0
Au    7.3000000000    4.2146570440    26.225870208    L0
Au    2.9200000000    6.7434512120    26.225870208    L0
Au    5.8400000000    6.7434512120    26.225870208    L0
Au    8.7600000000    6.7434512120    26.225870208    L0
C    3.7482026424    2.7982282848    37.230776386900004    S
C    3.8922112495    4.0297678852    36.5617416297    S
C    3.7819187503    4.0915736962    35.175698170800004    S
C    3.5155946381    2.9421005703    34.3989481509    S
C    3.4156416816    1.6534736108    36.4780739907    S
C    3.3036682641    1.7309466345    35.0945156833    S
C    3.5311483172    2.9763248889    32.9211955798    S
H    3.8999909480    5.0581488700    34.6842871671    S
S    4.1762815126    2.6218087296    38.943881090299996    S
H    3.2912252830    0.6956129495    36.9831120605    S
H    3.1061184795    0.8161944318    34.5345446421    S
H    4.1130203174    4.9306651301    37.1342601947    S
C    4.3806514147    3.8651078017    32.2257253608    S
C    4.5078405294    3.8227139540    30.8419663042    S
C    3.7813614302    2.8781757732    30.0888040632    S
C    2.8744481586    2.0322988095    30.7577627314    S
C    2.7613300424    2.0823930105    32.1440186019    S
H    5.2057990644    4.4901981807    30.3367260994    S
H    5.0009899539    4.5652565794    32.786190291400004    S
H    2.2783180131    1.3219628876    30.1848640581    S
H    2.0533225512    1.4140736646    32.6357160424    S
S    4.1792776342    2.6370985141    28.376315259400002    S
Au    8.7600000000    6.7434512120    41.0943344687    R0
Au    5.8400000000    6.7434512120    41.0943344687    R0
Au    2.9200000000    6.7434512120    41.0943344687    R0
Au    7.3000000000    4.2146570440    41.0943344687    R0
Au    4.3800000000    4.2146570440    41.0943344687    R0
Au    1.4600000000    4.2146570440    41.0943344687    R0
Au    5.8400000000    1.6858628760    41.0943344687    R0
Au    2.9200000000    1.6858628760    41.0943344687    R0
Au    0.0000000000    1.6858628760    41.0943344687    R0
Au    10.2200000000    5.9005196280    43.4785045407    R0
Au    7.3000000000    5.9005196280    43.4785045407    R0
Au    4.3800000000    5.9005196280    43.4785045407    R0
Au    8.7600000000    3.3717254600    43.4785045407    R0
Au    5.8400000000    3.3717254600    43.4785045407    R0
Au    2.9200000000    3.3717254600    43.4785045407    R0
Au    7.3000000000    0.8429312920    43.4785045407    R0
Au    4.3800000000    0.8429312920    43.4785045407    R0
Au    1.4600000000    0.8429312920    43.4785045407    R0
Au    8.7600000000    5.0575883360    45.862674612700005    R0
Au    5.8400000000    5.0575883360    45.862674612700005    R0
Au    2.9200000000    5.0575883360    45.862674612700005    R0
Au    7.3000000000    2.5287941680    45.862674612700005    R0
Au    4.3800000000    2.5287941680    45.862674612700005    R0
Au    1.4600000000    2.5287941680    45.862674612700005    R0
Au    5.8400000000    0.0000000000    45.862674612700005    R0
Au    2.9200000000    0.0000000000    45.862674612700005    R0
Au    0.0000000000    0.0000000000    45.862674612700005    R0
Au    8.7600000000    6.7434512120    48.2468446847    R1
Au    5.8400000000    6.7434512120    48.2468446847    R1
Au    2.9200000000    6.7434512120    48.2468446847    R1
Au    7.3000000000    4.2146570440    48.2468446847    R1
Au    4.3800000000    4.2146570440    48.2468446847    R1
Au    1.4600000000    4.2146570440    48.2468446847    R1
Au    5.8400000000    1.6858628760    48.2468446847    R1
Au    2.9200000000    1.6858628760    48.2468446847    R1
Au    0.0000000000    1.6858628760    48.2468446847    R1
Au    10.2200000000    5.9005196280    50.631014756700004    R1
Au    7.3000000000    5.9005196280    50.631014756700004    R1
Au    4.3800000000    5.9005196280    50.631014756700004    R1
Au    8.7600000000    3.3717254600    50.631014756700004    R1
Au    5.8400000000    3.3717254600    50.631014756700004    R1
Au    2.9200000000    3.3717254600    50.631014756700004    R1
Au    7.3000000000    0.8429312920    50.631014756700004    R1
Au    4.3800000000    0.8429312920    50.631014756700004    R1
Au    1.4600000000    0.8429312920    50.631014756700004    R1
Au    8.7600000000    5.0575883360    53.0151848287    R1
Au    5.8400000000    5.0575883360    53.0151848287    R1
Au    2.9200000000    5.0575883360    53.0151848287    R1
Au    7.3000000000    2.5287941680    53.0151848287    R1
Au    4.3800000000    2.5287941680    53.0151848287    R1
Au    1.4600000000    2.5287941680    53.0151848287    R1
Au    5.8400000000    0.0000000000    53.0151848287    R1
Au    2.9200000000    0.0000000000    53.0151848287    R1
Au    0.0000000000    0.0000000000    53.0151848287    R1
Au    8.7600000000    6.7434512120    55.3993546087    R2
Au    5.8400000000    6.7434512120    55.3993546087    R2
Au    2.9200000000    6.7434512120    55.3993546087    R2
Au    7.3000000000    4.2146570440    55.3993546087    R2
Au    4.3800000000    4.2146570440    55.3993546087    R2
Au    1.4600000000    4.2146570440    55.3993546087    R2
Au    5.8400000000    1.6858628760    55.3993546087    R2
Au    2.9200000000    1.6858628760    55.3993546087    R2
Au    0.0000000000    1.6858628760    55.3993546087    R2
Au    10.2200000000    5.9005196280    57.783524680700005    R2
Au    7.3000000000    5.9005196280    57.783524680700005    R2
Au    4.3800000000    5.9005196280    57.783524680700005    R2
Au    8.7600000000    3.3717254600    57.783524680700005    R2
Au    5.8400000000    3.3717254600    57.783524680700005    R2
Au    2.9200000000    3.3717254600    57.783524680700005    R2
Au    7.3000000000    0.8429312920    57.783524680700005    R2
Au    4.3800000000    0.8429312920    57.783524680700005    R2
Au    1.4600000000    0.8429312920    57.783524680700005    R2
Au    8.7600000000    5.0575883360    60.1676947527    R2
Au    5.8400000000    5.0575883360    60.1676947527    R2
Au    2.9200000000    5.0575883360    60.1676947527    R2
Au    7.3000000000    2.5287941680    60.1676947527    R2
Au    4.3800000000    2.5287941680    60.1676947527    R2
Au    1.4600000000    2.5287941680    60.1676947527    R2
Au    5.8400000000    0.0000000000    60.1676947527    R2
Au    2.9200000000    0.0000000000    60.1676947527    R2
Au    0.0000000000    0.0000000000    60.1676947527    R2
Au    8.7600000000    6.7434512120    62.5518645327    R3
Au    5.8400000000    6.7434512120    62.5518645327    R3
Au    2.9200000000    6.7434512120    62.5518645327    R3
Au    7.3000000000    4.2146570440    62.5518645327    R3
Au    4.3800000000    4.2146570440    62.5518645327    R3
Au    1.4600000000    4.2146570440    62.5518645327    R3
Au    5.8400000000    1.6858628760    62.5518645327    R3
Au    2.9200000000    1.6858628760    62.5518645327    R3
Au    0.0000000000    1.6858628760    62.5518645327    R3
Au    10.2200000000    5.9005196280    64.93603460470001    R3
Au    7.3000000000    5.9005196280    64.93603460470001    R3
Au    4.3800000000    5.9005196280    64.93603460470001    R3
Au    8.7600000000    3.3717254600    64.93603460470001    R3
Au    5.8400000000    3.3717254600    64.93603460470001    R3
Au    2.9200000000    3.3717254600    64.93603460470001    R3
Au    7.3000000000    0.8429312920    64.93603460470001    R3
Au    4.3800000000    0.8429312920    64.93603460470001    R3
Au    1.4600000000    0.8429312920    64.93603460470001    R3
Au    8.7600000000    5.0575883360    67.3202046767    R3
Au    5.8400000000    5.0575883360    67.3202046767    R3
Au    2.9200000000    5.0575883360    67.3202046767    R3
Au    7.3000000000    2.5287941680    67.3202046767    R3
Au    4.3800000000    2.5287941680    67.3202046767    R3
Au    1.4600000000    2.5287941680    67.3202046767    R3
Au    5.8400000000    0.0000000000    67.3202046767    R3
Au    2.9200000000    0.0000000000    67.3202046767    R3
Au    0.0000000000    0.0000000000    67.3202046767    R3
