22
	Energy:      48.3495474
C          5.82439        6.60827       -6.08282
C          6.03528        7.77109       -6.79550
C          5.85682        7.76745       -8.17985
C          5.46776        6.58558       -8.90221
C          5.41597        5.44953       -6.71787
C          5.22956        5.43061       -8.11084
C          5.41745        6.55130      -10.44197
H          6.05407        8.72430       -8.62408
S          6.01424        6.57162       -4.34201
H          5.25799        4.56540       -6.10562
H          4.92769        4.49499       -8.54410
H          6.34426        8.67738       -6.27499
C          5.91395        7.68092      -11.13765
C          6.06612        7.69413      -12.50864
C          5.70487        6.56999      -13.24247
C          5.14742        5.43743      -12.64729
C          5.00067        5.42241      -11.24377
H          6.50430        8.58454      -12.97308
H          6.24805        8.57095      -10.64328
H          4.86801        4.56935      -13.27598
H          4.59356        4.51077      -10.82350
S          6.01424        6.57162      -14.96047
