27
	Energy:      62.4379604
C   0.20632748587268462   -2.48428172393809   -3.9402388565391115
C   -0.11472584887604811   -1.523040603096359   -4.925957898837499
C   -0.4807731681029481   -0.216067803716247   -4.551362885700226
C   -0.5128073979297366   0.08707176824692764   -3.1909986619243327
C   0.1645643290540894   -2.1476966679245044   -2.5751340340434634
C   -0.20114302994227382   -0.8447792467843199   -2.235136605133601
C   -0.3292851879696395   -0.22747112151677587   -1.0053632185233847
C   -0.7318912379631966   1.080822271054979   -1.286780997211358
N   -0.8362418465229514   1.2606596754982573   -2.6231301523936077
C   -0.09403232152847366   -0.892404269798021   0.33057399996706743
C   -0.23232486030910138   0.029511367723702442   1.569539831784282
H   -0.8430642206936503   -1.7111791303837594   0.4003454146425182
H   0.9204263065811243   -1.3476329560356293   0.3386259984999712
N   0.8474326067522766   1.0214656785893907   1.6203860428542813
C   -0.2120436043210926   -0.7568411658975052   2.866094200417953
H   -1.2158437652242822   0.5459656033221372   1.5243489111598878
O   -0.05697478463688524   -1.968871891609596   2.866742036484139
O   -0.3688433507524571   -0.11849246681832509   4.045353195212132
H   -0.49937013977042033   0.839047768320358   4.090748481742955
H   -1.119105061756937   2.1387031966270333   -3.1125782977279965
H   -0.9477016966131199   1.858935732375908   -0.5680973150197601
S   -0.05697478463688521   -1.9688718916095964   -6.657798695435693
H   -0.7308247410055859   0.5316856249928141   -5.293261805730953
H   0.48692553393130156   -3.488139299583727   -4.232367451073365
H   0.4094485552988741   -2.8794157140352463   -1.81614510514181
H   1.7758172812197572   0.5403995755162957   1.6649712330857482
H   0.8411002348580269   1.644147745708747   0.7847544776569403
