27
	Energy:      62.4379604
 C    3.066099    3.501302   -0.293541
 C    3.890819    3.097406   -1.368558
 C    3.701074    1.841669   -1.976917
 C    2.683070    1.026021   -1.484565
 C    2.047053    2.655417    0.180903
 C    1.883075    1.417704   -0.442459
 C    0.987516    0.391685   -0.206549
 C    1.305552   -0.600436   -1.138105
 N    2.338526   -0.199521   -1.913773
 C   -0.073929    0.393289    0.868570
 C   -1.006116   -0.845827    0.889456
 H    0.471211    0.455442    1.835710
 H   -0.699892    1.306417    0.762925
 N   -1.880956   -0.876096   -0.288001
 C   -1.880956   -0.876096    2.127916
 H   -0.380709   -1.764815    0.917315
 O   -1.838931    0.024890    2.952397
 O   -2.722743   -1.911391    2.334859
 H   -2.784455   -2.648100    1.710682
 H    2.781983   -0.741708   -2.688408
 H    0.825763   -1.563312   -1.245645
 S    5.182723    4.185962   -1.958698
 H    4.324474    1.516417   -2.800207
 H    3.215459    4.467397    0.171695
 H    1.412563    2.959397    1.003469
 H   -2.473499   -0.013755   -0.318042
 H   -1.335526   -0.929715   -1.174440
