      235
 i =       21, E =     -1959.6943501172
 Au         0.0000000000        0.0000000000        0.0000000000 L3
 Au         2.9200000000        0.0000000000        0.0000000000 L3
 Au         5.8400000000        0.0000000000        0.0000000000 L3
 Au         1.4600000000        2.5287941680        0.0000000000 L3
 Au         4.3800000000        2.5287941680        0.0000000000 L3
 Au         7.3000000000        2.5287941680        0.0000000000 L3
 Au         2.9200000000        5.0575883360        0.0000000000 L3
 Au         5.8400000000        5.0575883360        0.0000000000 L3
 Au         8.7600000000        5.0575883360        0.0000000000 L3
 Au         1.4600000000        0.8429312920        2.3841700720 L3
 Au         4.3800000000        0.8429312920        2.3841700720 L3
 Au         7.3000000000        0.8429312920        2.3841700720 L3
 Au         2.9200000000        3.3717254600        2.3841700720 L3
 Au         5.8400000000        3.3717254600        2.3841700720 L3
 Au         8.7600000000        3.3717254600        2.3841700720 L3
 Au         4.3800000000        5.9005196280        2.3841700720 L3
 Au         7.3000000000        5.9005196280        2.3841700720 L3
 Au        10.2200000000        5.9005196280        2.3841700720 L3
 Au         0.0000000000        1.6858628760        4.7683401440 L3
 Au         2.9200000000        1.6858628760        4.7683401440 L3
 Au         5.8400000000        1.6858628760        4.7683401440 L3
 Au         1.4600000000        4.2146570440        4.7683401440 L3
 Au         4.3800000000        4.2146570440        4.7683401440 L3
 Au         7.3000000000        4.2146570440        4.7683401440 L3
 Au         2.9200000000        6.7434512120        4.7683401440 L3
 Au         5.8400000000        6.7434512120        4.7683401440 L3
 Au         8.7600000000        6.7434512120        4.7683401440 L3
 Au         0.0000000000        0.0000000000        7.1525099240 L2
 Au         2.9200000000        0.0000000000        7.1525099240 L2
 Au         5.8400000000        0.0000000000        7.1525099240 L2
 Au         1.4600000000        2.5287941680        7.1525099240 L2
 Au         4.3800000000        2.5287941680        7.1525099240 L2
 Au         7.3000000000        2.5287941680        7.1525099240 L2
 Au         2.9200000000        5.0575883360        7.1525099240 L2
 Au         5.8400000000        5.0575883360        7.1525099240 L2
 Au         8.7600000000        5.0575883360        7.1525099240 L2
 Au         1.4600000000        0.8429312920        9.5366799960 L2
 Au         4.3800000000        0.8429312920        9.5366799960 L2
 Au         7.3000000000        0.8429312920        9.5366799960 L2
 Au         2.9200000000        3.3717254600        9.5366799960 L2
 Au         5.8400000000        3.3717254600        9.5366799960 L2
 Au         8.7600000000        3.3717254600        9.5366799960 L2
 Au         4.3800000000        5.9005196280        9.5366799960 L2
 Au         7.3000000000        5.9005196280        9.5366799960 L2
 Au        10.2200000000        5.9005196280        9.5366799960 L2
 Au         0.0000000000        1.6858628760       11.9208500680 L2
 Au         2.9200000000        1.6858628760       11.9208500680 L2
 Au         5.8400000000        1.6858628760       11.9208500680 L2
 Au         1.4600000000        4.2146570440       11.9208500680 L2
 Au         4.3800000000        4.2146570440       11.9208500680 L2
 Au         7.3000000000        4.2146570440       11.9208500680 L2
 Au         2.9200000000        6.7434512120       11.9208500680 L2
 Au         5.8400000000        6.7434512120       11.9208500680 L2
 Au         8.7600000000        6.7434512120       11.9208500680 L2
 Au         0.0000000000        0.0000000000       14.3050198480 L1
 Au         2.9200000000        0.0000000000       14.3050198480 L1
 Au         5.8400000000        0.0000000000       14.3050198480 L1
 Au         1.4600000000        2.5287941680       14.3050198480 L1
 Au         4.3800000000        2.5287941680       14.3050198480 L1
 Au         7.3000000000        2.5287941680       14.3050198480 L1
 Au         2.9200000000        5.0575883360       14.3050198480 L1
 Au         5.8400000000        5.0575883360       14.3050198480 L1
 Au         8.7600000000        5.0575883360       14.3050198480 L1
 Au         1.4600000000        0.8429312920       16.6891899200 L1
 Au         4.3800000000        0.8429312920       16.6891899200 L1
 Au         7.3000000000        0.8429312920       16.6891899200 L1
 Au         2.9200000000        3.3717254600       16.6891899200 L1
 Au         5.8400000000        3.3717254600       16.6891899200 L1
 Au         8.7600000000        3.3717254600       16.6891899200 L1
 Au         4.3800000000        5.9005196280       16.6891899200 L1
 Au         7.3000000000        5.9005196280       16.6891899200 L1
 Au        10.2200000000        5.9005196280       16.6891899200 L1
 Au         0.0000000000        1.6858628760       19.0733599920 L1
 Au         2.9200000000        1.6858628760       19.0733599920 L1
 Au         5.8400000000        1.6858628760       19.0733599920 L1
 Au         1.4600000000        4.2146570440       19.0733599920 L1
 Au         4.3800000000        4.2146570440       19.0733599920 L1
 Au         7.3000000000        4.2146570440       19.0733599920 L1
 Au         2.9200000000        6.7434512120       19.0733599920 L1
 Au         5.8400000000        6.7434512120       19.0733599920 L1
 Au         8.7600000000        6.7434512120       19.0733599920 L1
Au    0.0000000000    0.0000000000    21.457530064    L0
Au    2.9200000000    0.0000000000    21.457530064    L0
Au    5.8400000000    0.0000000000    21.457530064    L0
Au    1.4600000000    2.5287941680    21.457530064    L0
Au    4.3800000000    2.5287941680    21.457530064    L0
Au    7.3000000000    2.5287941680    21.457530064    L0
Au    2.9200000000    5.0575883360    21.457530064    L0
Au    5.8400000000    5.0575883360    21.457530064    L0
Au    8.7600000000    5.0575883360    21.457530064    L0
Au    1.4600000000    0.8429312920    23.841700136    L0
Au    4.3800000000    0.8429312920    23.841700136    L0
Au    7.3000000000    0.8429312920    23.841700136    L0
Au    2.9200000000    3.3717254600    23.841700136    L0
Au    5.8400000000    3.3717254600    23.841700136    L0
Au    8.7600000000    3.3717254600    23.841700136    L0
Au    4.3800000000    5.9005196280    23.841700136    L0
Au    7.3000000000    5.9005196280    23.841700136    L0
Au    10.2200000000    5.9005196280    23.841700136    L0
Au    0.0000000000    1.6858628760    26.225870208    L0
Au    2.9200000000    1.6858628760    26.225870208    L0
Au    5.8400000000    1.6858628760    26.225870208    L0
Au    1.4600000000    4.2146570440    26.225870208    L0
Au    4.3800000000    4.2146570440    26.225870208    L0
Au    7.3000000000    4.2146570440    26.225870208    L0
Au    2.9200000000    6.7434512120    26.225870208    L0
Au    5.8400000000    6.7434512120    26.225870208    L0
Au    8.7600000000    6.7434512120    26.225870208    L0
C    6.1305672921    3.4403990258    30.9442323652    L0
C    5.9210597332    4.3737145295    29.8920774072    S
C    5.7605078493    5.7405400610    30.1467680959    S
C    5.8069475619    6.1416955077    31.4861441931    S
C    6.1756223978    3.8530491745    32.2629333684    S
C    6.0138654668    5.2193377115    32.5505923212    S
C    5.9875387806    5.9483144733    33.7855092087    S
C    5.7731929831    7.2721324089    33.4495753469    S
N    5.6636473670    7.3883336052    32.0697948176    S
C    6.1270077064    5.2280233494    35.090505704    S
C    6.5216247968    6.0078823868    36.358802401700004    S
H    5.1955002217    4.6943147329    35.3348221634    S
H    6.8808945049    4.4352647195    34.9423272518    S
N    7.7499618340    6.8040945365    36.184052128    S
C    6.8072657607    4.9046886836    37.3953819794    S
H    5.6724356303    6.6119848302    36.7158649923    S
O    5.9465823228    4.1157639282    37.7888725207    S
O    8.0887331755    4.8033236938    37.7338020502    S
H    8.5090833863    5.5692379869    37.2180205828    S
H    5.5426765963    8.2602985731    31.567022289900002    S
H    5.6734688226    8.1520087669    34.0776954087    S
S    5.8402491177    3.6204129748    28.2923383431    S
H    5.5975806310    6.4443935217    29.329118439200002    S
H    6.2426301090    2.3869529961    30.6889895811    S
H    6.3241372550    3.1232636070    33.0601968158    S
H    7.9141416884    7.0115867591    35.196376615700004    S
H    7.7030860867    7.6897678797    36.6903281904    S
Au    4.3800000000    4.2146600000    39.550410939900004    R0
Au    8.7600000000    6.7434512120    41.9345809399    R0
Au    5.8400000000    6.7434512120    41.9345809399    R0
Au    2.9200000000    6.7434512120    41.9345809399    R0
Au    7.3000000000    4.2146570440    41.9345809399    R0
Au    4.3800000000    4.2146570440    41.9345809399    R0
Au    1.4600000000    4.2146570440    41.9345809399    R0
Au    5.8400000000    1.6858628760    41.9345809399    R0
Au    2.9200000000    1.6858628760    41.9345809399    R0
Au    0.0000000000    1.6858628760    41.9345809399    R0
Au    10.2200000000    5.9005196280    44.318751011900005    R0
Au    7.3000000000    5.9005196280    44.318751011900005    R0
Au    4.3800000000    5.9005196280    44.318751011900005    R0
Au    8.7600000000    3.3717254600    44.318751011900005    R0
Au    5.8400000000    3.3717254600    44.318751011900005    R0
Au    2.9200000000    3.3717254600    44.318751011900005    R0
Au    7.3000000000    0.8429312920    44.318751011900005    R0
Au    4.3800000000    0.8429312920    44.318751011900005    R0
Au    1.4600000000    0.8429312920    44.318751011900005    R0
Au    8.7600000000    5.0575883360    46.7029210839    R0
Au    5.8400000000    5.0575883360    46.7029210839    R0
Au    2.9200000000    5.0575883360    46.7029210839    R0
Au    7.3000000000    2.5287941680    46.7029210839    R0
Au    4.3800000000    2.5287941680    46.7029210839    R0
Au    1.4600000000    2.5287941680    46.7029210839    R0
Au    5.8400000000    0.0000000000    46.7029210839    R0
Au    2.9200000000    0.0000000000    46.7029210839    R0
Au    0.0000000000    0.0000000000    46.7029210839    R0
Au    10.2200000000    5.9005196280    49.0870911559    R1
Au    7.3000000000    5.9005196280    49.0870911559    R1
Au    4.3800000000    5.9005196280    49.0870911559    R1
Au    8.7600000000    3.3717254600    49.0870911559    R1
Au    5.8400000000    3.3717254600    49.0870911559    R1
Au    2.9200000000    3.3717254600    49.0870911559    R1
Au    7.3000000000    0.8429312920    49.0870911559    R1
Au    4.3800000000    0.8429312920    49.0870911559    R1
Au    1.4600000000    0.8429312920    49.0870911559    R1
Au    8.7600000000    5.0575883360    51.471261227899994    R1
Au    5.8400000000    5.0575883360    51.471261227899994    R1
Au    2.9200000000    5.0575883360    51.471261227899994    R1
Au    7.3000000000    2.5287941680    51.471261227899994    R1
Au    4.3800000000    2.5287941680    51.471261227899994    R1
Au    1.4600000000    2.5287941680    51.471261227899994    R1
Au    5.8400000000    0.0000000000    51.471261227899994    R1
Au    2.9200000000    0.0000000000    51.471261227899994    R1
Au    0.0000000000    0.0000000000    51.471261227899994    R1
Au    8.7600000000    6.7434512120    53.855431007899995    R2
Au    5.8400000000    6.7434512120    53.855431007899995    R2
Au    2.9200000000    6.7434512120    53.855431007899995    R2
Au    7.3000000000    4.2146570440    53.855431007899995    R2
Au    4.3800000000    4.2146570440    53.855431007899995    R2
Au    1.4600000000    4.2146570440    53.855431007899995    R2
Au    5.8400000000    1.6858628760    53.855431007899995    R2
Au    2.9200000000    1.6858628760    53.855431007899995    R2
Au    0.0000000000    1.6858628760    53.855431007899995    R2
Au    10.2200000000    5.9005196280    56.2396010799    R2
Au    7.3000000000    5.9005196280    56.2396010799    R2
Au    4.3800000000    5.9005196280    56.2396010799    R2
Au    8.7600000000    3.3717254600    56.2396010799    R2
Au    5.8400000000    3.3717254600    56.2396010799    R2
Au    2.9200000000    3.3717254600    56.2396010799    R2
Au    7.3000000000    0.8429312920    56.2396010799    R2
Au    4.3800000000    0.8429312920    56.2396010799    R2
Au    1.4600000000    0.8429312920    56.2396010799    R2
Au    8.7600000000    5.0575883360    58.623771151899994    R2
Au    5.8400000000    5.0575883360    58.623771151899994    R2
Au    2.9200000000    5.0575883360    58.623771151899994    R2
Au    7.3000000000    2.5287941680    58.623771151899994    R2
Au    4.3800000000    2.5287941680    58.623771151899994    R2
Au    1.4600000000    2.5287941680    58.623771151899994    R2
Au    5.8400000000    0.0000000000    58.623771151899994    R2
Au    2.9200000000    0.0000000000    58.623771151899994    R2
Au    0.0000000000    0.0000000000    58.623771151899994    R2
Au    8.7600000000    6.7434512120    61.00794093189998    R3
Au    5.8400000000    6.7434512120    61.00794093189998    R3
Au    2.9200000000    6.7434512120    61.00794093189998    R3
Au    7.3000000000    4.2146570440    61.00794093189998    R3
Au    4.3800000000    4.2146570440    61.00794093189998    R3
Au    1.4600000000    4.2146570440    61.00794093189998    R3
Au    5.8400000000    1.6858628760    61.00794093189998    R3
Au    2.9200000000    1.6858628760    61.00794093189998    R3
Au    0.0000000000    1.6858628760    61.00794093189998    R3
Au    10.2200000000    5.9005196280    63.3921110039    R3
Au    7.3000000000    5.9005196280    63.3921110039    R3
Au    4.3800000000    5.9005196280    63.3921110039    R3
Au    8.7600000000    3.3717254600    63.3921110039    R3
Au    5.8400000000    3.3717254600    63.3921110039    R3
Au    2.9200000000    3.3717254600    63.3921110039    R3
Au    7.3000000000    0.8429312920    63.3921110039    R3
Au    4.3800000000    0.8429312920    63.3921110039    R3
Au    1.4600000000    0.8429312920    63.3921110039    R3
Au    8.7600000000    5.0575883360    65.77628107589999    R3
Au    5.8400000000    5.0575883360    65.77628107589999    R3
Au    2.9200000000    5.0575883360    65.77628107589999    R3
Au    7.3000000000    2.5287941680    65.77628107589999    R3
Au    4.3800000000    2.5287941680    65.77628107589999    R3
Au    1.4600000000    2.5287941680    65.77628107589999    R3
Au    5.8400000000    0.0000000000    65.77628107589999    R3
Au    2.9200000000    0.0000000000    65.77628107589999    R3
Au    0.0000000000    0.0000000000    65.77628107589999    R3
