     244
 i =       71, E =     -1888.0436785968
 Au         0.0000000000        0.0000000000        0.0000000000 L3
 Au         2.9200000000        0.0000000000        0.0000000000 L3
 Au         5.8400000000        0.0000000000        0.0000000000 L3
 Au         1.4600000000        2.5287941680        0.0000000000 L3
 Au         4.3800000000        2.5287941680        0.0000000000 L3
 Au         7.3000000000        2.5287941680        0.0000000000 L3
 Au         2.9200000000        5.0575883360        0.0000000000 L3
 Au         5.8400000000        5.0575883360        0.0000000000 L3
 Au         8.7600000000        5.0575883360        0.0000000000 L3
 Au         1.4600000000        0.8429312920        2.3841700720 L3
 Au         4.3800000000        0.8429312920        2.3841700720 L3
 Au         7.3000000000        0.8429312920        2.3841700720 L3
 Au         2.9200000000        3.3717254600        2.3841700720 L3
 Au         5.8400000000        3.3717254600        2.3841700720 L3
 Au         8.7600000000        3.3717254600        2.3841700720 L3
 Au         4.3800000000        5.9005196280        2.3841700720 L3
 Au         7.3000000000        5.9005196280        2.3841700720 L3
 Au        10.2200000000        5.9005196280        2.3841700720 L3
 Au         0.0000000000        1.6858628760        4.7683401440 L3
 Au         2.9200000000        1.6858628760        4.7683401440 L3
 Au         5.8400000000        1.6858628760        4.7683401440 L3
 Au         1.4600000000        4.2146570440        4.7683401440 L3
 Au         4.3800000000        4.2146570440        4.7683401440 L3
 Au         7.3000000000        4.2146570440        4.7683401440 L3
 Au         2.9200000000        6.7434512120        4.7683401440 L3
 Au         5.8400000000        6.7434512120        4.7683401440 L3
 Au         8.7600000000        6.7434512120        4.7683401440 L3
 Au         0.0000000000        0.0000000000        7.1525099240 L2
 Au         2.9200000000        0.0000000000        7.1525099240 L2
 Au         5.8400000000        0.0000000000        7.1525099240 L2
 Au         1.4600000000        2.5287941680        7.1525099240 L2
 Au         4.3800000000        2.5287941680        7.1525099240 L2
 Au         7.3000000000        2.5287941680        7.1525099240 L2
 Au         2.9200000000        5.0575883360        7.1525099240 L2
 Au         5.8400000000        5.0575883360        7.1525099240 L2
 Au         8.7600000000        5.0575883360        7.1525099240 L2
 Au         1.4600000000        0.8429312920        9.5366799960 L2
 Au         4.3800000000        0.8429312920        9.5366799960 L2
 Au         7.3000000000        0.8429312920        9.5366799960 L2
 Au         2.9200000000        3.3717254600        9.5366799960 L2
 Au         5.8400000000        3.3717254600        9.5366799960 L2
 Au         8.7600000000        3.3717254600        9.5366799960 L2
 Au         4.3800000000        5.9005196280        9.5366799960 L2
 Au         7.3000000000        5.9005196280        9.5366799960 L2
 Au        10.2200000000        5.9005196280        9.5366799960 L2
 Au         0.0000000000        1.6858628760       11.9208500680 L2
 Au         2.9200000000        1.6858628760       11.9208500680 L2
 Au         5.8400000000        1.6858628760       11.9208500680 L2
 Au         1.4600000000        4.2146570440       11.9208500680 L2
 Au         4.3800000000        4.2146570440       11.9208500680 L2
 Au         7.3000000000        4.2146570440       11.9208500680 L2
 Au         2.9200000000        6.7434512120       11.9208500680 L2
 Au         5.8400000000        6.7434512120       11.9208500680 L2
 Au         8.7600000000        6.7434512120       11.9208500680 L2
 Au         0.0000000000        0.0000000000       14.3050198480 L1
 Au         2.9200000000        0.0000000000       14.3050198480 L1
 Au         5.8400000000        0.0000000000       14.3050198480 L1
 Au         1.4600000000        2.5287941680       14.3050198480 L1
 Au         4.3800000000        2.5287941680       14.3050198480 L1
 Au         7.3000000000        2.5287941680       14.3050198480 L1
 Au         2.9200000000        5.0575883360       14.3050198480 L1
 Au         5.8400000000        5.0575883360       14.3050198480 L1
 Au         8.7600000000        5.0575883360       14.3050198480 L1
 Au         1.4600000000        0.8429312920       16.6891899200 L1
 Au         4.3800000000        0.8429312920       16.6891899200 L1
 Au         7.3000000000        0.8429312920       16.6891899200 L1
 Au         2.9200000000        3.3717254600       16.6891899200 L1
 Au         5.8400000000        3.3717254600       16.6891899200 L1
 Au         8.7600000000        3.3717254600       16.6891899200 L1
 Au         4.3800000000        5.9005196280       16.6891899200 L1
 Au         7.3000000000        5.9005196280       16.6891899200 L1
 Au        10.2200000000        5.9005196280       16.6891899200 L1
 Au         0.0000000000        1.6858628760       19.0733599920 L1
 Au         2.9200000000        1.6858628760       19.0733599920 L1
 Au         5.8400000000        1.6858628760       19.0733599920 L1
 Au         1.4600000000        4.2146570440       19.0733599920 L1
 Au         4.3800000000        4.2146570440       19.0733599920 L1
 Au         7.3000000000        4.2146570440       19.0733599920 L1
 Au         2.9200000000        6.7434512120       19.0733599920 L1
 Au         5.8400000000        6.7434512120       19.0733599920 L1
 Au         8.7600000000        6.7434512120       19.0733599920 L1
Au    0.0000000000    0.0000000000    21.457530064    L0
Au    2.9200000000    0.0000000000    21.457530064    L0
Au    5.8400000000    0.0000000000    21.457530064    L0
Au    1.4600000000    2.5287941680    21.457530064    L0
Au    4.3800000000    2.5287941680    21.457530064    L0
Au    7.3000000000    2.5287941680    21.457530064    L0
Au    2.9200000000    5.0575883360    21.457530064    L0
Au    5.8400000000    5.0575883360    21.457530064    L0
Au    8.7600000000    5.0575883360    21.457530064    L0
Au    1.4600000000    0.8429312920    23.841700136    L0
Au    4.3800000000    0.8429312920    23.841700136    L0
Au    7.3000000000    0.8429312920    23.841700136    L0
Au    2.9200000000    3.3717254600    23.841700136    L0
Au    5.8400000000    3.3717254600    23.841700136    L0
Au    8.7600000000    3.3717254600    23.841700136    L0
Au    4.3800000000    5.9005196280    23.841700136    L0
Au    7.3000000000    5.9005196280    23.841700136    L0
Au    10.2200000000    5.9005196280    23.841700136    L0
Au    0.0000000000    1.6858628760    26.225870208    L0
Au    2.9200000000    1.6858628760    26.225870208    L0
Au    5.8400000000    1.6858628760    26.225870208    L0
Au    1.4600000000    4.2146570440    26.225870208    L0
Au    4.3800000000    4.2146570440    26.225870208    L0
Au    7.3000000000    4.2146570440    26.225870208    L0
Au    2.9200000000    6.7434512120    26.225870208    L0
Au    5.8400000000    6.7434512120    26.225870208    L0
Au    8.7600000000    6.7434512120    26.225870208    L0
C    5.6884594219    3.0024706420    39.116438418    S
C    5.2710323830    4.0959683266    38.3340452223    S
C    5.7014929728    4.2127117577    37.0166392275    S
C    6.5647124313    3.2680794427    36.4307298586    S
C    6.6097276302    2.0914877640    38.5734484893    S
C    7.0349904788    2.2280943119    37.2481996122    S
C    7.2287668948    2.2739532336    32.7199554965    S
H    5.3346805947    5.0460203727    36.412919684100004    S
S    4.7987281387    2.6549526293    40.6159699619    S
H    6.9613277279    1.2552189207    39.178049027200004    S
H    7.7273741202    1.4874957750    36.8454000923    S
H    4.5747055235    4.8230267547    38.7520025616    S
C    8.0927002826    3.0384455022    31.9165957984    S
C    7.8357918450    3.2461992878    30.5595076355    S
C    6.6896702453    2.6859271761    29.968251313099998    S
C    5.8559156208    1.8581551908    30.7426191455    S
C    6.1255475089    1.6674903537    32.0957812463    S
H    8.5044228882    3.8655681183    29.9613330774    S
H    8.9784853975    3.4979433495    32.3611380167    S
H    4.9800810671    1.3966529437    30.2863307307    S
H    5.4509023309    1.0443852816    32.6871603996    S
S    6.1029258177    3.1926867608    28.3665562676    S
C    6.9068329529    3.4150475136    34.9593537293    S
H    6.0010173527    3.7747943754    34.444738314700004    S
H    7.6470533869    4.2240601203    34.832407072    S
C    7.4134677457    2.1538029102    34.2182981647    S
H    6.8519001151    1.2763137366    34.574823084    S
H    8.4724674933    1.9733466407    34.461902372    S
Au    8.7600000000    6.7434512120    42.767180064    R0
Au    5.8400000000    6.7434512120    42.767180064    R0
Au    2.9200000000    6.7434512120    42.767180064    R0
Au    7.3000000000    4.2146570440    42.767180064    R0
Au    4.3800000000    4.2146570440    42.767180064    R0
Au    1.4600000000    4.2146570440    42.767180064    R0
Au    5.8400000000    1.6858628760    42.767180064    R0
Au    2.9200000000    1.6858628760    42.767180064    R0
Au    0.0000000000    1.6858628760    42.767180064    R0
Au    10.2200000000    5.9005196280    45.151350136000005    R0
Au    7.3000000000    5.9005196280    45.151350136000005    R0
Au    4.3800000000    5.9005196280    45.151350136000005    R0
Au    8.7600000000    3.3717254600    45.151350136000005    R0
Au    5.8400000000    3.3717254600    45.151350136000005    R0
Au    2.9200000000    3.3717254600    45.151350136000005    R0
Au    7.3000000000    0.8429312920    45.151350136000005    R0
Au    4.3800000000    0.8429312920    45.151350136000005    R0
Au    1.4600000000    0.8429312920    45.151350136000005    R0
Au    8.7600000000    5.0575883360    47.535520208    R0
Au    5.8400000000    5.0575883360    47.535520208    R0
Au    2.9200000000    5.0575883360    47.535520208    R0
Au    7.3000000000    2.5287941680    47.535520208    R0
Au    4.3800000000    2.5287941680    47.535520208    R0
Au    1.4600000000    2.5287941680    47.535520208    R0
Au    5.8400000000    0.0000000000    47.535520208    R0
Au    2.9200000000    0.0000000000    47.535520208    R0
Au    0.0000000000    0.0000000000    47.535520208    R0
Au    8.7600000000    6.7434512120    49.91969028    R1
Au    5.8400000000    6.7434512120    49.91969028    R1
Au    2.9200000000    6.7434512120    49.91969028    R1
Au    7.3000000000    4.2146570440    49.91969028    R1
Au    4.3800000000    4.2146570440    49.91969028    R1
Au    1.4600000000    4.2146570440    49.91969028    R1
Au    5.8400000000    1.6858628760    49.91969028    R1
Au    2.9200000000    1.6858628760    49.91969028    R1
Au    0.0000000000    1.6858628760    49.91969028    R1
Au    10.2200000000    5.9005196280    52.303860352    R1
Au    7.3000000000    5.9005196280    52.303860352    R1
Au    4.3800000000    5.9005196280    52.303860352    R1
Au    8.7600000000    3.3717254600    52.303860352    R1
Au    5.8400000000    3.3717254600    52.303860352    R1
Au    2.9200000000    3.3717254600    52.303860352    R1
Au    7.3000000000    0.8429312920    52.303860352    R1
Au    4.3800000000    0.8429312920    52.303860352    R1
Au    1.4600000000    0.8429312920    52.303860352    R1
Au    8.7600000000    5.0575883360    54.688030424    R1
Au    5.8400000000    5.0575883360    54.688030424    R1
Au    2.9200000000    5.0575883360    54.688030424    R1
Au    7.3000000000    2.5287941680    54.688030424    R1
Au    4.3800000000    2.5287941680    54.688030424    R1
Au    1.4600000000    2.5287941680    54.688030424    R1
Au    5.8400000000    0.0000000000    54.688030424    R1
Au    2.9200000000    0.0000000000    54.688030424    R1
Au    0.0000000000    0.0000000000    54.688030424    R1
Au    8.7600000000    6.7434512120    57.072200204    R2
Au    5.8400000000    6.7434512120    57.072200204    R2
Au    2.9200000000    6.7434512120    57.072200204    R2
Au    7.3000000000    4.2146570440    57.072200204    R2
Au    4.3800000000    4.2146570440    57.072200204    R2
Au    1.4600000000    4.2146570440    57.072200204    R2
Au    5.8400000000    1.6858628760    57.072200204    R2
Au    2.9200000000    1.6858628760    57.072200204    R2
Au    0.0000000000    1.6858628760    57.072200204    R2
Au    10.2200000000    5.9005196280    59.456370276    R2
Au    7.3000000000    5.9005196280    59.456370276    R2
Au    4.3800000000    5.9005196280    59.456370276    R2
Au    8.7600000000    3.3717254600    59.456370276    R2
Au    5.8400000000    3.3717254600    59.456370276    R2
Au    2.9200000000    3.3717254600    59.456370276    R2
Au    7.3000000000    0.8429312920    59.456370276    R2
Au    4.3800000000    0.8429312920    59.456370276    R2
Au    1.4600000000    0.8429312920    59.456370276    R2
Au    8.7600000000    5.0575883360    61.840540348    R2
Au    5.8400000000    5.0575883360    61.840540348    R2
Au    2.9200000000    5.0575883360    61.840540348    R2
Au    7.3000000000    2.5287941680    61.840540348    R2
Au    4.3800000000    2.5287941680    61.840540348    R2
Au    1.4600000000    2.5287941680    61.840540348    R2
Au    5.8400000000    0.0000000000    61.840540348    R2
Au    2.9200000000    0.0000000000    61.840540348    R2
Au    0.0000000000    0.0000000000    61.840540348    R2
Au    8.7600000000    6.7434512120    64.224710128    R3
Au    5.8400000000    6.7434512120    64.224710128    R3
Au    2.9200000000    6.7434512120    64.224710128    R3
Au    7.3000000000    4.2146570440    64.224710128    R3
Au    4.3800000000    4.2146570440    64.224710128    R3
Au    1.4600000000    4.2146570440    64.224710128    R3
Au    5.8400000000    1.6858628760    64.224710128    R3
Au    2.9200000000    1.6858628760    64.224710128    R3
Au    0.0000000000    1.6858628760    64.224710128    R3
Au    10.2200000000    5.9005196280    66.60888020000002    R3
Au    7.3000000000    5.9005196280    66.60888020000002    R3
Au    4.3800000000    5.9005196280    66.60888020000002    R3
Au    8.7600000000    3.3717254600    66.60888020000002    R3
Au    5.8400000000    3.3717254600    66.60888020000002    R3
Au    2.9200000000    3.3717254600    66.60888020000002    R3
Au    7.3000000000    0.8429312920    66.60888020000002    R3
Au    4.3800000000    0.8429312920    66.60888020000002    R3
Au    1.4600000000    0.8429312920    66.60888020000002    R3
Au    8.7600000000    5.0575883360    68.993050272    R3
Au    5.8400000000    5.0575883360    68.993050272    R3
Au    2.9200000000    5.0575883360    68.993050272    R3
Au    7.3000000000    2.5287941680    68.993050272    R3
Au    4.3800000000    2.5287941680    68.993050272    R3
Au    1.4600000000    2.5287941680    68.993050272    R3
Au    5.8400000000    0.0000000000    68.993050272    R3
Au    2.9200000000    0.0000000000    68.993050272    R3
Au    0.0000000000    0.0000000000    68.993050272    R3
