81
	Energy:      28.0773810
Au    0.0000000000    0.0000000000    0.0000000000    L3
Au    2.9200000000    0.0000000000    0.0000000000    L3
Au    5.8400000000    0.0000000000    0.0000000000    L3
Au    1.4600000000    2.5287941680    0.0000000000    L3
Au    4.3800000000    2.5287941680    0.0000000000    L3
Au    7.3000000000    2.5287941680    0.0000000000    L3
Au    2.9200000000    5.0575883360    0.0000000000    L3
Au    5.8400000000    5.0575883360    0.0000000000    L3
Au    8.7600000000    5.0575883360    0.0000000000    L3
Au    1.4600000000    0.8429312920    2.3841700720    L3
Au    4.3800000000    0.8429312920    2.3841700720    L3
Au    7.3000000000    0.8429312920    2.3841700720    L3
Au    2.9200000000    3.3717254600    2.3841700720    L3
Au    5.8400000000    3.3717254600    2.3841700720    L3
Au    8.7600000000    3.3717254600    2.3841700720    L3
Au    4.3800000000    5.9005196280    2.3841700720    L3
Au    7.3000000000    5.9005196280    2.3841700720    L3
Au    10.2200000000    5.9005196280    2.3841700720    L3
Au    0.0000000000    1.6858628760    4.7683401440    L3
Au    2.9200000000    1.6858628760    4.7683401440    L3
Au    5.8400000000    1.6858628760    4.7683401440    L3
Au    1.4600000000    4.2146570440    4.7683401440    L3
Au    4.3800000000    4.2146570440    4.7683401440    L3
Au    7.3000000000    4.2146570440    4.7683401440    L3
Au    2.9200000000    6.7434512120    4.7683401440    L3
Au    5.8400000000    6.7434512120    4.7683401440    L3
Au    8.7600000000    6.7434512120    4.7683401440    L3
C    6.26536    3.41574    17.728210144    S
C    6.67153    4.61731    17.141370144    S
C    6.67565    4.7524999999999995    15.749380143999998    S
C    6.27296    3.6887700000000003    14.925310143999997    S
C    5.8632800000000005    2.3485400000000003    16.920920143999997    S
C    5.86529    2.47963    15.528970143999999    S
C    5.99371    2.9264300000000003    11.074660143999997    S
H    6.9931    5.69164    15.312640143999998    S
S    6.25896    3.2433    19.509650144    S
H    5.54736    1.4150800000000001    17.369440144    S
H    5.54542    1.63076    14.941950143999998    S
H    6.98386    5.44801    17.761470143999997    S
C    6.46376    4.214    10.472580143999998    S
C    6.52331    4.35735    9.137150143999998    S
C    6.12423    3.24086    8.247530143999997    S
C    5.70378    2.08102    8.778160143999997    S
C    5.63704    1.9177399999999998    10.249630143999998    S
H    6.8657900000000005    5.29397    8.708120143999997    S
H    6.76513    5.047980000000001    11.096620143999997    S
H    5.4090300000000004    1.25597    8.136990143999999    S
H    5.29222    0.9700500000000001    10.653980143999998    S
S    6.2052700000000005    3.44316    6.468340143999999    S
C    6.29884    3.9074199999999997    13.426460143999998    S
C    5.89924    2.6976    12.570390143999997    S
H    5.62919    4.762030000000001    13.185860143999998    S
H    4.84826    2.42771    12.814250143999997    S
H    6.56667    1.8457399999999997    12.824730143999998    S
Au    8.7600000000    6.7434512120    21.30965    R0
Au    5.8400000000    6.7434512120    21.30965    R0
Au    2.9200000000    6.7434512120    21.30965    R0
Au    7.3000000000    4.2146570440    21.30965    R0
Au    4.3800000000    4.2146570440    21.30965    R0
Au    1.4600000000    4.2146570440    21.30965    R0
Au    5.8400000000    1.6858628760    21.30965    R0
Au    2.9200000000    1.6858628760    21.30965    R0
Au    0.0000000000    1.6858628760    21.30965    R0
Au    10.2200000000    5.9005196280    23.693820072000005    R0
Au    7.3000000000    5.9005196280    23.693820072000005    R0
Au    4.3800000000    5.9005196280    23.693820072000005    R0
Au    8.7600000000    3.3717254600    23.693820072000005    R0
Au    5.8400000000    3.3717254600    23.693820072000005    R0
Au    2.9200000000    3.3717254600    23.693820072000005    R0
Au    7.3000000000    0.8429312920    23.693820072000005    R0
Au    4.3800000000    0.8429312920    23.693820072000005    R0
Au    1.4600000000    0.8429312920    23.693820072000005    R0
Au    8.7600000000    5.0575883360    26.077990144    R0
Au    5.8400000000    5.0575883360    26.077990144    R0
Au    2.9200000000    5.0575883360    26.077990144    R0
Au    7.3000000000    2.5287941680    26.077990144    R0
Au    4.3800000000    2.5287941680    26.077990144    R0
Au    1.4600000000    2.5287941680    26.077990144    R0
Au    5.8400000000    0.0000000000    26.077990144    R0
Au    2.9200000000    0.0000000000    26.077990144    R0
Au    0.0000000000    0.0000000000    26.077990144    R0
