     156
 i =      317, E =     -2910.7774440688
 Au         0.0000000000        0.0000000000        0.0000000000
 Au         8.7600000000        0.0000000000        0.0000000000
 Au         4.3800000000        7.5863820000        0.0000000000
 Au        13.1400000000        7.5863820000        0.0000000000
 Au         2.9200000000        0.0000000000        0.0000000000
 Au        11.6800000000        0.0000000000        0.0000000000
 Au         7.3000000000        7.5863820000        0.0000000000
 Au        16.0599990000        7.5863820000        0.0000000000
 Au         5.8400000000        0.0000000000        0.0000000000
 Au        10.2200000000        7.5863820000        0.0000000000
 Au         1.4600000000        2.5287940000        0.0000000000
 Au        10.2200000000        2.5287940000        0.0000000000
 Au         5.8400000000       10.1151760000        0.0000000000
 Au        14.6000000000       10.1151760000        0.0000000000
 Au         4.3800000000        2.5287940000        0.0000000000
 Au        13.1400000000        2.5287940000        0.0000000000
 Au         8.7600000000       10.1151760000        0.0000000000
 Au        17.5200000000       10.1151760000        0.0000000000
 Au         7.3000000000        2.5287940000        0.0000000000
 Au        11.6800000000       10.1151760000        0.0000000000
 Au         2.9200000000        5.0575880000        0.0000000000
 Au        11.6800000000        5.0575880000        0.0000000000
 Au         5.8400000000        5.0575880000        0.0000000000
 Au        14.6000000000        5.0575880000        0.0000000000
 Au         8.7600000000        5.0575880000        0.0000000000
 Au         1.4600000000        0.8429310000        2.3841700000
 Au        10.2200000000        0.8429310000        2.3841700000
 Au         5.8400000000        8.4293140000        2.3841700000
 Au        14.6000000000        8.4293140000        2.3841700000
 Au         4.3800000000        0.8429310000        2.3841700000
 Au        13.1400000000        0.8429310000        2.3841700000
 Au         8.7600000000        8.4293140000        2.3841700000
 Au        17.5200000000        8.4293140000        2.3841700000
 Au         7.3000000000        0.8429310000        2.3841700000
 Au        11.6800000000        8.4293140000        2.3841700000
 Au         2.9200000000        3.3717260000        2.3841700000
 Au        11.6800000000        3.3717260000        2.3841700000
 Au         7.3000000000       10.9581080000        2.3841700000
 Au        16.0599990000       10.9581080000        2.3841700000
 Au         5.8400000000        3.3717260000        2.3841700000
 Au        14.6000000000        3.3717260000        2.3841700000
 Au        10.2200000000       10.9581080000        2.3841700000
 Au        18.9800000000       10.9581080000        2.3841700000
 Au         8.7600000000        3.3717260000        2.3841700000
 Au        13.1400000000       10.9581080000        2.3841700000
 Au         4.3800000000        5.9005200000        2.3841700000
 Au        13.1400000000        5.9005200000        2.3841700000
 Au         7.3000000000        5.9005200000        2.3841700000
 Au        16.0599990000        5.9005200000        2.3841700000
 Au        10.2200000000        5.9005200000        2.3841700000
 Au         8.7600000000        1.6858630000        4.7683400000
 Au        13.1400000000        9.2722450000        4.7683400000
 Au         2.9200000000        1.6858630000        4.7683400000
 Au        11.6800000000        1.6858630000        4.7683400000
 Au         7.3000000000        9.2722450000        4.7683400000
 Au        16.0599990000        9.2722450000        4.7683400000
 Au         5.8400000000        1.6858630000        4.7683400000
 Au        14.6000000000        1.6858630000        4.7683400000
 Au        10.2200000000        9.2722450000        4.7683400000
 Au        18.9800000000        9.2722450000        4.7683400000
 Au        10.2200000000        4.2146570000        4.7683400000
 Au        14.6000000000       11.8010400000        4.7683400000
 Au         4.3800000000        4.2146570000        4.7683400000
 Au        13.1400000000        4.2146570000        4.7683400000
 Au         8.7600000000       11.8010400000        4.7683400000
 Au        17.5200000000       11.8010400000        4.7683400000
 Au         7.3000000000        4.2146570000        4.7683400000
 Au        16.0599990000        4.2146570000        4.7683400000
 Au        11.6800000000       11.8010400000        4.7683400000
 Au        20.4400010000       11.8010400000        4.7683400000
 Au        11.6800000000        6.7434510000        4.7683400000
 Au         5.8400000000        6.7434510000        4.7683400000
 Au        14.6000000000        6.7434510000        4.7683400000
 Au         8.7600000000        6.7434510000        4.7683400000
 Au        17.5200000000        6.7434510000        4.7683400000
  C         8.6753559615        2.0474626465       18.4844916737
  C         9.6100945805        1.1447878379       17.8382298927
  C         9.5444611550        1.3693856907       16.4091292575
  C         8.5485162366        2.4310338632       16.1707663090
  C         8.0226247321        2.8375929677       17.4570708263
  C         7.7075438255        4.1812382640       17.7058437616
  C         7.9348858869        5.1628924837       16.6725429540
  C         8.4694027617        4.7529172041       15.4426707557
  C         8.7549549450        3.3698426533       15.1775631556
  C         9.8202600508        3.2430903287       14.0938942984
  C        10.9035078968        2.0901585095       14.3506787277
  C        10.6917449879        1.3006442308       15.6399787709
  C        11.9520991712        1.0380929759       16.2795548231
  C        12.0329959975        0.7928169993       17.6580076242
  C        10.8327533347        0.8487578770       18.4572570298
  C        11.1685643340        1.4549924893       19.7312806643
  C        12.5873331535        1.7719099486       19.7170851297
  C        13.1237958476        1.3606917084       18.4321071981
  C        14.1003774569        2.1352193102       17.8002052889
  C        14.0263028145        2.3742496642       16.3686911281
  C        12.9646424551        1.8410246341       15.6229376088
  C        12.3282806282        2.5983287567       14.5765177380
  C        12.7365373633        3.8997966213       14.3496005652
  C        11.7409618518        4.9606498293       14.1101619264
  C        10.3905130102        4.6633490497       14.1094661437
  C         9.4824777235        5.5542400554       14.7850337997
  C         9.9304555779        6.7415397037       15.3826659563
  C         9.3908345277        7.1568339609       16.6668839648
  C         8.4130304118        6.3837398755       17.2988425975
  C         8.4835497129        6.1483792404       18.7298639195
  C         9.5331513102        6.6948914868       19.4762418813
  C        10.5494792550        7.5006015478       18.8195559686
  C        10.4787712179        7.7280816126       17.4407742029
  C        11.6842632491        7.6657407924       16.6308530760
  C        11.3383534050        7.0579811610       15.3603826400
  C        12.2279990398        6.1689498175       14.7415396357
  C        13.5041690449        5.8742421578       15.3660247223
  C        13.8148654810        4.4775403980       15.1235562526
  C        14.4632970682        3.7257214237       16.1126221303
  C        14.8064793735        4.3368315334       17.3820341435
  C        14.5829750458        3.3522508202       18.4282207723
  C        14.0649840523        3.7516058786       19.6653487779
  C        13.0483931259        2.9463350218       20.3221279733
  C        12.1102955269        3.8474003266       20.9663605811
  C        12.5460543513        5.2090224914       20.7097075054
  C        13.7536664767        5.1492748302       19.9049653318
  C        13.9706287084        6.0968816477       18.8979323593
  C        14.5037675543        5.6838853043       17.6151869703
  C        13.8459894356        6.4698525950       16.5841843793
  C        12.9146476002        7.3776023427       17.2332885932
  C        12.9878913159        7.1442814452       18.6618093860
  C        11.8273048972        7.2033863514       19.4416708619
  C        11.6014535727        6.2155671103       20.4822377336
  C        10.1837430175        5.9012631639       20.5030515914
  C         9.7621556374        4.5884554706       20.7445656047
  C        10.7446262518        3.5411849963       20.9808957447
  C        10.2660261277        2.3266869649       20.3514068195
  C         8.9916020896        2.6230622747       19.7190437431
  C         8.6775790188        4.0202225722       19.9693972774
  C         8.0470923760        4.7840612573       18.9803740481
  C        10.7502166605        1.1776690947       13.0530131725
  C         9.1868552646        2.8169993262       12.7005431000
  N        10.1542115352        1.9842414907       12.0022617651
  H        11.7075867843        0.7416979156       12.7412555877
  H        10.0631730799        0.3552800412       13.3075214286
  H         8.2889824224        2.2172250530       12.9152592054
  H         8.8825088994        3.6822419425       12.1002177891
  C        10.3868413861        3.3722047690        9.9794997735
  C        10.6394891755        4.7112396950        9.6530383643
  C         9.9285492564        5.3531796714        8.6383785187
  C         8.9296765735        4.6558825257        7.9394423209
  C         9.4281454689        2.6681327697        9.2331731611
  C         8.7050393733        3.2957447906        8.2246039224
  H        11.3875637886        5.2721578548       10.2168067189
  H         9.2264607803        1.6240763634        9.4761790148
  H         7.9403212245        2.7489363203        7.6728492742
  H        10.1184925794        6.4022351696        8.4117293034
  S         7.7979764456        5.5520184551        6.9079366364
  C        11.1043075544        2.7035554444       11.1305914747
  H        11.8068579018        1.9482046040       10.7420840282
  H        11.7103611659        3.4574894756       11.6653680759
Au     0.000000     0.000000     0.000000     R0
Au     8.760000     0.000000     0.000000     R0
Au     4.380000     7.586382     0.000000     R0
Au     13.140000     7.586382     0.000000     R0
Au     2.920000     0.000000     0.000000     R0
Au     11.680000     0.000000     0.000000     R0
Au     7.300000     7.586382     0.000000     R0
Au     16.059999     7.586382     0.000000     R0
Au     5.840000     0.000000     0.000000     R0
Au     10.220000     7.586382     0.000000     R0
Au     1.460000     2.528794     0.000000     R0
Au     10.220000     2.528794     0.000000     R0
Au     5.840000     10.115176     0.000000     R0
Au     14.600000     10.115176     0.000000     R0
Au     4.380000     2.528794     0.000000     R0
Au     13.140000     2.528794     0.000000     R0
Au     8.760000     10.115176     0.000000     R0
Au     17.520000     10.115176     0.000000     R0
Au     7.300000     2.528794     0.000000     R0
Au     11.680000     10.115176     0.000000     R0
Au     2.920000     5.057588     0.000000     R0
Au     11.680000     5.057588     0.000000     R0
Au     5.840000     5.057588     0.000000     R0
Au     14.600000     5.057588     0.000000     R0
Au     8.760000     5.057588     0.000000     R0
Au     1.460000     0.842931     2.384170     R0
Au     10.220000     0.842931     2.384170     R0
Au     5.840000     8.429314     2.384170     R0
Au     14.600000     8.429314     2.384170     R0
Au     4.380000     0.842931     2.384170     R0
Au     13.140000     0.842931     2.384170     R0
Au     8.760000     8.429314     2.384170     R0
Au     17.520000     8.429314     2.384170     R0
Au     7.300000     0.842931     2.384170     R0
Au     11.680000     8.429314     2.384170     R0
Au     2.920000     3.371726     2.384170     R0
Au     11.680000     3.371726     2.384170     R0
Au     7.300000     10.958108     2.384170     R0
Au     16.059999     10.958108     2.384170     R0
Au     5.840000     3.371726     2.384170     R0
Au     14.600000     3.371726     2.384170     R0
Au     10.220000     10.958108     2.384170     R0
Au     18.980000     10.958108     2.384170     R0
Au     8.760000     3.371726     2.384170     R0
Au     13.140000     10.958108     2.384170     R0
Au     4.380000     5.900520     2.384170     R0
Au     13.140000     5.900520     2.384170     R0
Au     7.300000     5.900520     2.384170     R0
Au     16.059999     5.900520     2.384170     R0
Au     10.220000     5.900520     2.384170     R0
Au     8.760000     1.685863     4.768340     R0
Au     13.140000     9.272245     4.768340     R0
Au     2.920000     1.685863     4.768340     R0
Au     11.680000     1.685863     4.768340     R0
Au     7.300000     9.272245     4.768340     R0
Au     16.059999     9.272245     4.768340     R0
Au     5.840000     1.685863     4.768340     R0
Au     14.600000     1.685863     4.768340     R0
Au     10.220000     9.272245     4.768340     R0
Au     18.980000     9.272245     4.768340     R0
Au     10.220000     4.214657     4.768340     R0
Au     14.600000     11.801040     4.768340     R0
Au     4.380000     4.214657     4.768340     R0
Au     13.140000     4.214657     4.768340     R0
Au     8.760000     11.801040     4.768340     R0
Au     17.520000     11.801040     4.768340     R0
Au     7.300000     4.214657     4.768340     R0
Au     16.059999     4.214657     4.768340     R0
Au     11.680000     11.801040     4.768340     R0
Au     20.440001     11.801040     4.768340     R0
Au     11.680000     6.743451     4.768340     R0
Au     5.840000     6.743451     4.768340     R0
Au     14.600000     6.743451     4.768340     R0
Au     8.760000     6.743451     4.768340     R0
Au     17.520000     6.743451     4.768340     R0
Au     0.000000     0.000000     7.152510     R0
Au     8.760000     0.000000     7.152510     R1
Au     4.380000     7.586382     7.152510     R1
Au     13.140000     7.586382     7.152510     R1
Au     2.920000     0.000000     7.152510     R1
Au     11.680000     0.000000     7.152510     R1
Au     7.300000     7.586382     7.152510     R1
Au     16.059999     7.586382     7.152510     R1
Au     5.840000     0.000000     7.152510     R1
Au     10.220000     7.586382     7.152510     R1
Au     1.460000     2.528794     7.152510     R1
Au     10.220000     2.528794     7.152510     R1
Au     5.840000     10.115176     7.152510     R1
Au     14.600000     10.115176     7.152510     R1
Au     4.380000     2.528794     7.152510     R1
Au     13.140000     2.528794     7.152510     R1
Au     8.760000     10.115176     7.152510     R1
Au     17.520000     10.115176     7.152510     R1
Au     7.300000     2.528794     7.152510     R1
Au     11.680000     10.115176     7.152510     R1
Au     2.920000     5.057588     7.152510     R1
Au     11.680000     5.057588     7.152510     R1
Au     5.840000     5.057588     7.152510     R1
Au     14.600000     5.057588     7.152510     R1
Au     8.760000     5.057588     7.152510     R1
Au     1.460000     0.842931     9.536680     R1
Au     10.220000     0.842931     9.536680     R1
Au     5.840000     8.429314     9.536680     R1
Au     14.600000     8.429314     9.536680     R1
Au     4.380000     0.842931     9.536680     R1
Au     13.140000     0.842931     9.536680     R1
Au     8.760000     8.429314     9.536680     R1
Au     17.520000     8.429314     9.536680     R1
Au     7.300000     0.842931     9.536680     R1
Au     11.680000     8.429314     9.536680     R1
Au     2.920000     3.371726     9.536680     R1
Au     11.680000     3.371726     9.536680     R1
Au     7.300000     10.958108     9.536680     R1
Au     16.059999     10.958108     9.536680     R1
Au     5.840000     3.371726     9.536680     R1
Au     14.600000     3.371726     9.536680     R1
Au     10.220000     10.958108     9.536680     R1
Au     18.980000     10.958108     9.536680     R1
Au     8.760000     3.371726     9.536680     R1
Au     13.140000     10.958108     9.536680     R1
Au     4.380000     5.900520     9.536680     R1
Au     13.140000     5.900520     9.536680     R1
Au     7.300000     5.900520     9.536680     R1
Au     16.059999     5.900520     9.536680     R1
Au     10.220000     5.900520     9.536680     R1
Au     8.760000     1.685863     11.920850     R1
Au     13.140000     9.272245     11.920850     R1
Au     2.920000     1.685863     11.920850     R1
Au     11.680000     1.685863     11.920850     R1
Au     7.300000     9.272245     11.920850     R1
Au     16.059999     9.272245     11.920850     R1
Au     5.840000     1.685863     11.920850     R1
Au     14.600000     1.685863     11.920850     R1
Au     10.220000     9.272245     11.920850     R1
Au     18.980000     9.272245     11.920850     R1
Au     10.220000     4.214657     11.920850     R1
Au     14.600000     11.801040     11.920850     R1
Au     4.380000     4.214657     11.920850     R1
Au     13.140000     4.214657     11.920850     R1
Au     8.760000     11.801040     11.920850     R1
Au     17.520000     11.801040     11.920850     R1
Au     7.300000     4.214657     11.920850     R1
Au     16.059999     4.214657     11.920850     R1
Au     11.680000     11.801040     11.920850     R1
Au     20.440001     11.801040     11.920850     R1
Au     11.680000     6.743451     11.920850     R1
Au     5.840000     6.743451     11.920850     R1
Au     14.600000     6.743451     11.920850     R1
Au     8.760000     6.743451     11.920850     R1
Au     17.520000     6.743451     11.920850     R1
Au     0.000000     0.000000     14.305019     R1
Au     8.760000     0.000000     14.305019     R2
Au     4.380000     7.586382     14.305019     R2
Au     13.140000     7.586382     14.305019     R2
Au     2.920000     0.000000     14.305019     R2
Au     11.680000     0.000000     14.305019     R2
Au     7.300000     7.586382     14.305019     R2
Au     16.059999     7.586382     14.305019     R2
Au     5.840000     0.000000     14.305019     R2
Au     10.220000     7.586382     14.305019     R2
Au     1.460000     2.528794     14.305019     R2
Au     10.220000     2.528794     14.305019     R2
Au     5.840000     10.115176     14.305019     R2
Au     14.600000     10.115176     14.305019     R2
Au     4.380000     2.528794     14.305019     R2
Au     13.140000     2.528794     14.305019     R2
Au     8.760000     10.115176     14.305019     R2
Au     17.520000     10.115176     14.305019     R2
Au     7.300000     2.528794     14.305019     R2
Au     11.680000     10.115176     14.305019     R2
Au     2.920000     5.057588     14.305019     R2
Au     11.680000     5.057588     14.305019     R2
Au     5.840000     5.057588     14.305019     R2
Au     14.600000     5.057588     14.305019     R2
Au     8.760000     5.057588     14.305019     R2
Au     1.460000     0.842931     16.689190     R2
Au     10.220000     0.842931     16.689190     R2
Au     5.840000     8.429314     16.689190     R2
Au     14.600000     8.429314     16.689190     R2
Au     4.380000     0.842931     16.689190     R2
Au     13.140000     0.842931     16.689190     R2
Au     8.760000     8.429314     16.689190     R2
Au     17.520000     8.429314     16.689190     R2
Au     7.300000     0.842931     16.689190     R2
Au     11.680000     8.429314     16.689190     R2
Au     2.920000     3.371726     16.689190     R2
Au     11.680000     3.371726     16.689190     R2
Au     7.300000     10.958108     16.689190     R2
Au     16.059999     10.958108     16.689190     R2
Au     5.840000     3.371726     16.689190     R2
Au     14.600000     3.371726     16.689190     R2
Au     10.220000     10.958108     16.689190     R2
Au     18.980000     10.958108     16.689190     R2
Au     8.760000     3.371726     16.689190     R2
Au     13.140000     10.958108     16.689190     R2
Au     4.380000     5.900520     16.689190     R2
Au     13.140000     5.900520     16.689190     R2
Au     7.300000     5.900520     16.689190     R2
Au     16.059999     5.900520     16.689190     R2
Au     10.220000     5.900520     16.689190     R2
Au     8.760000     1.685863     19.073360     R2
Au     13.140000     9.272245     19.073360     R2
Au     2.920000     1.685863     19.073360     R2
Au     11.680000     1.685863     19.073360     R2
Au     7.300000     9.272245     19.073360     R2
Au     16.059999     9.272245     19.073360     R2
Au     5.840000     1.685863     19.073360     R2
Au     14.600000     1.685863     19.073360     R2
Au     10.220000     9.272245     19.073360     R2
Au     18.980000     9.272245     19.073360     R2
Au     10.220000     4.214657     19.073360     R2
Au     14.600000     11.801040     19.073360     R2
Au     4.380000     4.214657     19.073360     R2
Au     13.140000     4.214657     19.073360     R2
Au     8.760000     11.801040     19.073360     R2
Au     17.520000     11.801040     19.073360     R2
Au     7.300000     4.214657     19.073360     R2
Au     16.059999     4.214657     19.073360     R2
Au     11.680000     11.801040     19.073360     R2
Au     20.440001     11.801040     19.073360     R2
Au     11.680000     6.743451     19.073360     R2
Au     5.840000     6.743451     19.073360     R2
Au     14.600000     6.743451     19.073360     R2
Au     8.760000     6.743451     19.073360     R2
Au     17.520000     6.743451     19.073360     R2
Au     0.000000     0.000000     21.457529     R2
Au     8.760000     0.000000     21.457529     R3
Au     4.380000     7.586382     21.457529     R3
Au     13.140000     7.586382     21.457529     R3
Au     2.920000     0.000000     21.457529     R3
Au     11.680000     0.000000     21.457529     R3
Au     7.300000     7.586382     21.457529     R3
Au     16.059999     7.586382     21.457529     R3
Au     5.840000     0.000000     21.457529     R3
Au     10.220000     7.586382     21.457529     R3
Au     1.460000     2.528794     21.457529     R3
Au     10.220000     2.528794     21.457529     R3
Au     5.840000     10.115176     21.457529     R3
Au     14.600000     10.115176     21.457529     R3
Au     4.380000     2.528794     21.457529     R3
Au     13.140000     2.528794     21.457529     R3
Au     8.760000     10.115176     21.457529     R3
Au     17.520000     10.115176     21.457529     R3
Au     7.300000     2.528794     21.457529     R3
Au     11.680000     10.115176     21.457529     R3
Au     2.920000     5.057588     21.457529     R3
Au     11.680000     5.057588     21.457529     R3
Au     5.840000     5.057588     21.457529     R3
Au     14.600000     5.057588     21.457529     R3
Au     8.760000     5.057588     21.457529     R3
Au     1.460000     0.842931     23.841700     R3
Au     10.220000     0.842931     23.841700     R3
Au     5.840000     8.429314     23.841700     R3
Au     14.600000     8.429314     23.841700     R3
Au     4.380000     0.842931     23.841700     R3
Au     13.140000     0.842931     23.841700     R3
Au     8.760000     8.429314     23.841700     R3
Au     17.520000     8.429314     23.841700     R3
Au     7.300000     0.842931     23.841700     R3
Au     11.680000     8.429314     23.841700     R3
Au     2.920000     3.371726     23.841700     R3
Au     11.680000     3.371726     23.841700     R3
Au     7.300000     10.958108     23.841700     R3
Au     16.059999     10.958108     23.841700     R3
Au     5.840000     3.371726     23.841700     R3
Au     14.600000     3.371726     23.841700     R3
Au     10.220000     10.958108     23.841700     R3
Au     18.980000     10.958108     23.841700     R3
Au     8.760000     3.371726     23.841700     R3
Au     13.140000     10.958108     23.841700     R3
Au     4.380000     5.900520     23.841700     R3
Au     13.140000     5.900520     23.841700     R3
Au     7.300000     5.900520     23.841700     R3
Au     16.059999     5.900520     23.841700     R3
Au     10.220000     5.900520     23.841700     R3
Au     8.760000     1.685863     26.225870     R3
Au     13.140000     9.272245     26.225870     R3
Au     2.920000     1.685863     26.225870     R3
Au     11.680000     1.685863     26.225870     R3
Au     7.300000     9.272245     26.225870     R3
Au     16.059999     9.272245     26.225870     R3
Au     5.840000     1.685863     26.225870     R3
Au     14.600000     1.685863     26.225870     R3
Au     10.220000     9.272245     26.225870     R3
Au     18.980000     9.272245     26.225870     R3
Au     10.220000     4.214657     26.225870     R3
Au     14.600000     11.801040     26.225870     R3
Au     4.380000     4.214657     26.225870     R3
Au     13.140000     4.214657     26.225870     R3
Au     8.760000     11.801040     26.225870     R3
Au     17.520000     11.801040     26.225870     R3
Au     7.300000     4.214657     26.225870     R3
Au     16.059999     4.214657     26.225870     R3
Au     11.680000     11.801040     26.225870     R3
Au     20.440001     11.801040     26.225870     R3
Au     11.680000     6.743451     26.225870     R3
Au     5.840000     6.743451     26.225870     R3
Au     14.600000     6.743451     26.225870     R3
Au     8.760000     6.743451     26.225870     R3
Au     17.520000     6.743451     26.225870     R3