     682
 i =      402, E =     -1614.5588022613
Au     0.000000     0.000000     0.000000     L3
Au     8.760000     0.000000     0.000000     L3
Au     4.380000     7.586382     0.000000     L3
Au     13.140000     7.586382     0.000000     L3
Au     2.920000     0.000000     0.000000     L3
Au     11.680000     0.000000     0.000000     L3
Au     7.300000     7.586382     0.000000     L3
Au     16.059999     7.586382     0.000000     L3
Au     5.840000     0.000000     0.000000     L3
Au     10.220000     7.586382     0.000000     L3
Au     1.460000     2.528794     0.000000     L3
Au     10.220000     2.528794     0.000000     L3
Au     5.840000     10.115176     0.000000     L3
Au     14.600000     10.115176     0.000000     L3
Au     4.380000     2.528794     0.000000     L3
Au     13.140000     2.528794     0.000000     L3
Au     8.760000     10.115176     0.000000     L3
Au     17.520000     10.115176     0.000000     L3
Au     7.300000     2.528794     0.000000     L3
Au     11.680000     10.115176     0.000000     L3
Au     2.920000     5.057588     0.000000     L3
Au     11.680000     5.057588     0.000000     L3
Au     5.840000     5.057588     0.000000     L3
Au     14.600000     5.057588     0.000000     L3
Au     8.760000     5.057588     0.000000     L3
Au     1.460000     0.842931     2.384170     L3
Au     10.220000     0.842931     2.384170     L3
Au     5.840000     8.429314     2.384170     L3
Au     14.600000     8.429314     2.384170     L3
Au     4.380000     0.842931     2.384170     L3
Au     13.140000     0.842931     2.384170     L3
Au     8.760000     8.429314     2.384170     L3
Au     17.520000     8.429314     2.384170     L3
Au     7.300000     0.842931     2.384170     L3
Au     11.680000     8.429314     2.384170     L3
Au     2.920000     3.371726     2.384170     L3
Au     11.680000     3.371726     2.384170     L3
Au     7.300000     10.958108     2.384170     L3
Au     16.059999     10.958108     2.384170     L3
Au     5.840000     3.371726     2.384170     L3
Au     14.600000     3.371726     2.384170     L3
Au     10.220000     10.958108     2.384170     L3
Au     18.980000     10.958108     2.384170     L3
Au     8.760000     3.371726     2.384170     L3
Au     13.140000     10.958108     2.384170     L3
Au     4.380000     5.900520     2.384170     L3
Au     13.140000     5.900520     2.384170     L3
Au     7.300000     5.900520     2.384170     L3
Au     16.059999     5.900520     2.384170     L3
Au     10.220000     5.900520     2.384170     L3
Au     8.760000     1.685863     4.768340     L3
Au     13.140000     9.272245     4.768340     L3
Au     2.920000     1.685863     4.768340     L3
Au     11.680000     1.685863     4.768340     L3
Au     7.300000     9.272245     4.768340     L3
Au     16.059999     9.272245     4.768340     L3
Au     5.840000     1.685863     4.768340     L3
Au     14.600000     1.685863     4.768340     L3
Au     10.220000     9.272245     4.768340     L3
Au     18.980000     9.272245     4.768340     L3
Au     10.220000     4.214657     4.768340     L3
Au     14.600000     11.801040     4.768340     L3
Au     4.380000     4.214657     4.768340     L3
Au     13.140000     4.214657     4.768340     L3
Au     8.760000     11.801040     4.768340     L3
Au     17.520000     11.801040     4.768340     L3
Au     7.300000     4.214657     4.768340     L3
Au     16.059999     4.214657     4.768340     L3
Au     11.680000     11.801040     4.768340     L3
Au     20.440001     11.801040     4.768340     L3
Au     11.680000     6.743451     4.768340     L3
Au     5.840000     6.743451     4.768340     L3
Au     14.600000     6.743451     4.768340     L3
Au     8.760000     6.743451     4.768340     L3
Au     17.520000     6.743451     4.768340     L3
Au     0.000000     0.000000     7.152510     L2
Au     8.760000     0.000000     7.152510     L2
Au     4.380000     7.586382     7.152510     L2
Au     13.140000     7.586382     7.152510     L2
Au     2.920000     0.000000     7.152510     L2
Au     11.680000     0.000000     7.152510     L2
Au     7.300000     7.586382     7.152510     L2
Au     16.059999     7.586382     7.152510     L2
Au     5.840000     0.000000     7.152510     L2
Au     10.220000     7.586382     7.152510     L2
Au     1.460000     2.528794     7.152510     L2
Au     10.220000     2.528794     7.152510     L2
Au     5.840000     10.115176     7.152510     L2
Au     14.600000     10.115176     7.152510     L2
Au     4.380000     2.528794     7.152510     L2
Au     13.140000     2.528794     7.152510     L2
Au     8.760000     10.115176     7.152510     L2
Au     17.520000     10.115176     7.152510     L2
Au     7.300000     2.528794     7.152510     L2
Au     11.680000     10.115176     7.152510     L2
Au     2.920000     5.057588     7.152510     L2
Au     11.680000     5.057588     7.152510     L2
Au     5.840000     5.057588     7.152510     L2
Au     14.600000     5.057588     7.152510     L2
Au     8.760000     5.057588     7.152510     L2
Au     1.460000     0.842931     9.536680     L2
Au     10.220000     0.842931     9.536680     L2
Au     5.840000     8.429314     9.536680     L2
Au     14.600000     8.429314     9.536680     L2
Au     4.380000     0.842931     9.536680     L2
Au     13.140000     0.842931     9.536680     L2
Au     8.760000     8.429314     9.536680     L2
Au     17.520000     8.429314     9.536680     L2
Au     7.300000     0.842931     9.536680     L2
Au     11.680000     8.429314     9.536680     L2
Au     2.920000     3.371726     9.536680     L2
Au     11.680000     3.371726     9.536680     L2
Au     7.300000     10.958108     9.536680     L2
Au     16.059999     10.958108     9.536680     L2
Au     5.840000     3.371726     9.536680     L2
Au     14.600000     3.371726     9.536680     L2
Au     10.220000     10.958108     9.536680     L2
Au     18.980000     10.958108     9.536680     L2
Au     8.760000     3.371726     9.536680     L2
Au     13.140000     10.958108     9.536680     L2
Au     4.380000     5.900520     9.536680     L2
Au     13.140000     5.900520     9.536680     L2
Au     7.300000     5.900520     9.536680     L2
Au     16.059999     5.900520     9.536680     L2
Au     10.220000     5.900520     9.536680     L2
Au     8.760000     1.685863     11.920850     L2
Au     13.140000     9.272245     11.920850     L2
Au     2.920000     1.685863     11.920850     L2
Au     11.680000     1.685863     11.920850     L2
Au     7.300000     9.272245     11.920850     L2
Au     16.059999     9.272245     11.920850     L2
Au     5.840000     1.685863     11.920850     L2
Au     14.600000     1.685863     11.920850     L2
Au     10.220000     9.272245     11.920850     L2
Au     18.980000     9.272245     11.920850     L2
Au     10.220000     4.214657     11.920850     L2
Au     14.600000     11.801040     11.920850     L2
Au     4.380000     4.214657     11.920850     L2
Au     13.140000     4.214657     11.920850     L2
Au     8.760000     11.801040     11.920850     L2
Au     17.520000     11.801040     11.920850     L2
Au     7.300000     4.214657     11.920850     L2
Au     16.059999     4.214657     11.920850     L2
Au     11.680000     11.801040     11.920850     L2
Au     20.440001     11.801040     11.920850     L2
Au     11.680000     6.743451     11.920850     L2
Au     5.840000     6.743451     11.920850     L2
Au     14.600000     6.743451     11.920850     L2
Au     8.760000     6.743451     11.920850     L2
Au     17.520000     6.743451     11.920850     L2
Au     0.000000     0.000000     14.305019     L1
Au     8.760000     0.000000     14.305019     L1
Au     4.380000     7.586382     14.305019     L1
Au     13.140000     7.586382     14.305019     L1
Au     2.920000     0.000000     14.305019     L1
Au     11.680000     0.000000     14.305019     L1
Au     7.300000     7.586382     14.305019     L1
Au     16.059999     7.586382     14.305019     L1
Au     5.840000     0.000000     14.305019     L1
Au     10.220000     7.586382     14.305019     L1
Au     1.460000     2.528794     14.305019     L1
Au     10.220000     2.528794     14.305019     L1
Au     5.840000     10.115176     14.305019     L1
Au     14.600000     10.115176     14.305019     L1
Au     4.380000     2.528794     14.305019     L1
Au     13.140000     2.528794     14.305019     L1
Au     8.760000     10.115176     14.305019     L1
Au     17.520000     10.115176     14.305019     L1
Au     7.300000     2.528794     14.305019     L1
Au     11.680000     10.115176     14.305019     L1
Au     2.920000     5.057588     14.305019     L1
Au     11.680000     5.057588     14.305019     L1
Au     5.840000     5.057588     14.305019     L1
Au     14.600000     5.057588     14.305019     L1
Au     8.760000     5.057588     14.305019     L1
Au     1.460000     0.842931     16.689190     L1
Au     10.220000     0.842931     16.689190     L1
Au     5.840000     8.429314     16.689190     L1
Au     14.600000     8.429314     16.689190     L1
Au     4.380000     0.842931     16.689190     L1
Au     13.140000     0.842931     16.689190     L1
Au     8.760000     8.429314     16.689190     L1
Au     17.520000     8.429314     16.689190     L1
Au     7.300000     0.842931     16.689190     L1
Au     11.680000     8.429314     16.689190     L1
Au     2.920000     3.371726     16.689190     L1
Au     11.680000     3.371726     16.689190     L1
Au     7.300000     10.958108     16.689190     L1
Au     16.059999     10.958108     16.689190     L1
Au     5.840000     3.371726     16.689190     L1
Au     14.600000     3.371726     16.689190     L1
Au     10.220000     10.958108     16.689190     L1
Au     18.980000     10.958108     16.689190     L1
Au     8.760000     3.371726     16.689190     L1
Au     13.140000     10.958108     16.689190     L1
Au     4.380000     5.900520     16.689190     L1
Au     13.140000     5.900520     16.689190     L1
Au     7.300000     5.900520     16.689190     L1
Au     16.059999     5.900520     16.689190     L1
Au     10.220000     5.900520     16.689190     L1
Au     8.760000     1.685863     19.073360     L1
Au     13.140000     9.272245     19.073360     L1
Au     2.920000     1.685863     19.073360     L1
Au     11.680000     1.685863     19.073360     L1
Au     7.300000     9.272245     19.073360     L1
Au     16.059999     9.272245     19.073360     L1
Au     5.840000     1.685863     19.073360     L1
Au     14.600000     1.685863     19.073360     L1
Au     10.220000     9.272245     19.073360     L1
Au     18.980000     9.272245     19.073360     L1
Au     10.220000     4.214657     19.073360     L1
Au     14.600000     11.801040     19.073360     L1
Au     4.380000     4.214657     19.073360     L1
Au     13.140000     4.214657     19.073360     L1
Au     8.760000     11.801040     19.073360     L1
Au     17.520000     11.801040     19.073360     L1
Au     7.300000     4.214657     19.073360     L1
Au     16.059999     4.214657     19.073360     L1
Au     11.680000     11.801040     19.073360     L1
Au     20.440001     11.801040     19.073360     L1
Au     11.680000     6.743451     19.073360     L1
Au     5.840000     6.743451     19.073360     L1
Au     14.600000     6.743451     19.073360     L1
Au     8.760000     6.743451     19.073360     L1
Au     17.520000     6.743451     19.073360     L1
Au     0.000000     0.000000     21.457529     L0
Au     8.760000     0.000000     21.457529     L0
Au     4.380000     7.586382     21.457529     L0
Au     13.140000     7.586382     21.457529     L0
Au     2.920000     0.000000     21.457529     L0
Au     11.680000     0.000000     21.457529     L0
Au     7.300000     7.586382     21.457529     L0
Au     16.059999     7.586382     21.457529     L0
Au     5.840000     0.000000     21.457529     L0
Au     10.220000     7.586382     21.457529     L0
Au     1.460000     2.528794     21.457529     L0
Au     10.220000     2.528794     21.457529     L0
Au     5.840000     10.115176     21.457529     L0
Au     14.600000     10.115176     21.457529     L0
Au     4.380000     2.528794     21.457529     L0
Au     13.140000     2.528794     21.457529     L0
Au     8.760000     10.115176     21.457529     L0
Au     17.520000     10.115176     21.457529     L0
Au     7.300000     2.528794     21.457529     L0
Au     11.680000     10.115176     21.457529     L0
Au     2.920000     5.057588     21.457529     L0
Au     11.680000     5.057588     21.457529     L0
Au     5.840000     5.057588     21.457529     L0
Au     14.600000     5.057588     21.457529     L0
Au     8.760000     5.057588     21.457529     L0
Au     1.460000     0.842931     23.841700     L0
Au     10.220000     0.842931     23.841700     L0
Au     5.840000     8.429314     23.841700     L0
Au     14.600000     8.429314     23.841700     L0
Au     4.380000     0.842931     23.841700     L0
Au     13.140000     0.842931     23.841700     L0
Au     8.760000     8.429314     23.841700     L0
Au     17.520000     8.429314     23.841700     L0
Au     7.300000     0.842931     23.841700     L0
Au     11.680000     8.429314     23.841700     L0
Au     2.920000     3.371726     23.841700     L0
Au     11.680000     3.371726     23.841700     L0
Au     7.300000     10.958108     23.841700     L0
Au     16.059999     10.958108     23.841700     L0
Au     5.840000     3.371726     23.841700     L0
Au     14.600000     3.371726     23.841700     L0
Au     10.220000     10.958108     23.841700     L0
Au     18.980000     10.958108     23.841700     L0
Au     8.760000     3.371726     23.841700     L0
Au     13.140000     10.958108     23.841700     L0
Au     4.380000     5.900520     23.841700     L0
Au     13.140000     5.900520     23.841700     L0
Au     7.300000     5.900520     23.841700     L0
Au     16.059999     5.900520     23.841700     L0
Au     10.220000     5.900520     23.841700     L0
Au     8.760000     1.685863     26.225870     L0
Au     13.140000     9.272245     26.225870     L0
Au     2.920000     1.685863     26.225870     L0
Au     11.680000     1.685863     26.225870     L0
Au     7.300000     9.272245     26.225870     L0
Au     16.059999     9.272245     26.225870     L0
Au     5.840000     1.685863     26.225870     L0
Au     14.600000     1.685863     26.225870     L0
Au     10.220000     9.272245     26.225870     L0
Au     18.980000     9.272245     26.225870     L0
Au     10.220000     4.214657     26.225870     L0
Au     14.600000     11.801040     26.225870     L0
Au     4.380000     4.214657     26.225870     L0
Au     13.140000     4.214657     26.225870     L0
Au     8.760000     11.801040     26.225870     L0
Au     17.520000     11.801040     26.225870     L0
Au     7.300000     4.214657     26.225870     L0
Au     16.059999     4.214657     26.225870     L0
Au     11.680000     11.801040     26.225870     L0
Au     20.440001     11.801040     26.225870     L0
Au     11.680000     6.743451     26.225870     L0
Au     5.840000     6.743451     26.225870     L0
Au     14.600000     6.743451     26.225870     L0
Au     8.760000     6.743451     26.225870     L0
Au     17.520000     6.743451     26.225870     L0
H    11.4591229784    6.0270239724    30.7421157116    S
C    11.8412659054    6.9892144739    30.396006485    S
C    11.136234739999999    8.1624008118    30.6971406038    S
C    11.649112827900002    9.3879496802    30.2451130001    S
H    11.111956186699999    10.3093913252    30.473028497900003    S
C    12.8365055268    9.441650643    29.518564355000002    S
H    13.228199358200001    10.4004052056    29.1773451291    S
C    13.535848501700002    8.2577552874    29.214950159700003    S
C    13.0229970519    7.0260490664    29.657769906600002    S
H    13.557222726100001    6.1042062    29.4285839361    S
C    9.831990917599999    8.0849478765    31.451564339    S
N    9.700877861999999    9.1063829085    32.510059813400005    S
H    8.9996488162    8.2584472014    30.748841322700002    S
H    9.7021421494    7.0594737168    31.8406431601    S
C    8.4245837281    9.066970529599999    33.1968304414    S
C    10.700588681100001    9.072296122800001    33.5641499361    S
C    6.939077756299999    7.0144474804    40.170888183200006    S
C    7.5928082503    5.8905315814    40.813863567400006    S
C    6.983058691899999    4.6722834954    40.3187122728    S
C    5.9471404942    5.0400397896    39.366338362600004    S
C    5.925332308199999    6.4886906361    39.2713113026    S
C    5.7033306140999995    7.0986044716    38.0334048769    S
C    5.4779641007999995    6.2978658537    36.8451201416    S
C    5.490831385499999    4.9032119157    36.9383948112    S
C    5.74011558    4.2675059438    38.2214191946    S
C    6.5606351436    3.0956878022    37.981506316    S
C    7.556623682799999    2.7400396353    38.893500047100005    S
C    7.772721593099999    3.5402531339000003    40.086560164000005    S
C    9.1979414618    3.581270676    40.345773602600005    S
C    9.788826920999998    4.7551511731    40.828377070900004    S
C    8.974541919    5.9315402061    41.0637767011    S
C    9.7451604785    7.0985033247    40.6797741969    S
C    11.039560064699998    6.6410583496    40.1998337103    S
C    11.0705468005    5.1916427536    40.2978061039    S
C    11.709776191100001    4.4421758204    39.3070237927    S
C    11.0953839487    3.2245701917    38.8062231015    S
C    9.865286661799999    2.8029973993    39.315225988    S
C    8.849061705699999    2.2845369804    38.416387050500006    S
C    9.099525961800001    2.2098863533    37.0426570189    S
C    8.0663552786    2.5843114358    36.094848510700004    S
C    6.815408946299999    3.0132045087    36.5554887643    S
C    6.152812035399999    4.1272931468    35.9100913407    S
C    6.767983006699999    4.7758860732    34.8316915506    S
C    6.752185480899999    6.2245848849000005    34.7351478186    S
C    6.107795631199999    6.9638793002    35.7217400173    S
C    6.7489345226    8.1796366919    36.2273108852    S
C    7.9586521309    8.6056565462    35.70540024    S
C    8.568538903099999    8.0496696746    34.4190051575    S
C    8.0222218911    6.6715692327    34.177049534700004    S
C    8.8220192249    5.5367557752    33.9895803201    S
C    8.063483536099998    4.339765432    34.368940738    S
C    8.6966214025    3.2632955793000002    34.9837023415    S
C    10.136129646299999    3.3039142391    35.2441661718    S
C    10.376833415099998    2.6512621302    36.5136889818    S
C    11.358735099299999    3.1455617064    37.3804724864    S
C    12.1349626839    4.3046360992    36.9976183801    S
C    12.350298326499999    5.106252408    38.185769353400005    S
C    12.3171032935    6.500501073000001    38.0886300585    S
C    11.6460194436    7.276427139    39.112708415200004    S
C    10.976993915800001    8.3856768463    38.4596851577    S
C    11.231851738    8.3078233638    37.0401377011    S
C    12.0784702927    7.1382406451    36.8076931745    S
C    11.862335073099999    6.372390063    35.6675712282    S
C    11.9007783743    4.9260133281    35.7648432194    S
C    10.879441161599999    4.4207290823    34.8791672542    S
C    10.2318935379    5.5752587048    34.244710447    S
C    10.8418389458    6.7486095639000006    34.6993117081    S
C    10.1723624647    8.089538645000001    34.706448231    S
C    10.262808853700001    8.674049480699999    36.1186830612    S
C    8.975031322700001    9.085355117    36.5942154835    S
C    8.7212336224    9.193921877200001    37.981890016099996    S
C    9.743590297699999    8.840140571700001    38.93355547    S
C    9.1128506983    8.1827855879    40.061864956    S
C    7.6834223985    8.1396153183    39.8025118857    S
C    7.451058579499999    8.770538634000001    38.5179103837    S
C    6.4893745679    8.2527028026    37.6471382594    S
H    11.681315898800001    8.769211541    33.1808245149    S
H    10.7966947289    10.076074312300001    34.0041461169    S
S    15.128502883900001    8.3134189831    28.425829095300003    S
H    8.204333887099999    10.0590907622    33.6201993367    S
H    7.6076160695    8.7889392002    32.5204662278    S
Au   8.76000   6.74345  44.06378  R0
Au    0.000000    0.000000    46.44795    R0
Au    8.760000    0.000000    46.44795    R0
Au    4.380000    7.586382    46.44795    R0
Au    13.140000    7.586382    46.44795    R0
Au    2.920000    0.000000    46.44795    R0
Au    11.680000    0.000000    46.44795    R0
Au    7.300000    7.586382    46.44795    R0
Au    16.059999    7.586382    46.44795    R0
Au    5.840000    0.000000    46.44795    R0
Au    10.220000    7.586382    46.44795    R0
Au    1.460000    2.528794    46.44795    R0
Au    10.220000    2.528794    46.44795    R0
Au    5.840000    10.115176    46.44795    R0
Au    14.600000    10.115176    46.44795    R0
Au    4.380000    2.528794    46.44795    R0
Au    13.140000    2.528794    46.44795    R0
Au    8.760000    10.115176    46.44795    R0
Au    17.520000    10.115176    46.44795    R0
Au    7.300000    2.528794    46.44795    R0
Au    11.680000    10.115176    46.44795    R0
Au    2.920000    5.057588    46.44795    R0
Au    11.680000    5.057588    46.44795    R0
Au    5.840000    5.057588    46.44795    R0
Au    14.600000    5.057588    46.44795    R0
Au    8.760000    5.057588    46.44795    R0
Au    1.460000    0.842931    48.832119999999996    R0
Au    10.220000    0.842931    48.832119999999996    R0
Au    5.840000    8.429314    48.832119999999996    R0
Au    14.600000    8.429314    48.832119999999996    R0
Au    4.380000    0.842931    48.832119999999996    R0
Au    13.140000    0.842931    48.832119999999996    R0
Au    8.760000    8.429314    48.832119999999996    R0
Au    17.520000    8.429314    48.832119999999996    R0
Au    7.300000    0.842931    48.832119999999996    R0
Au    11.680000    8.429314    48.832119999999996    R0
Au    2.920000    3.371726    48.832119999999996    R0
Au    11.680000    3.371726    48.832119999999996    R0
Au    7.300000    10.958108    48.832119999999996    R0
Au    16.059999    10.958108    48.832119999999996    R0
Au    5.840000    3.371726    48.832119999999996    R0
Au    14.600000    3.371726    48.832119999999996    R0
Au    10.220000    10.958108    48.832119999999996    R0
Au    18.980000    10.958108    48.832119999999996    R0
Au    8.760000    3.371726    48.832119999999996    R0
Au    13.140000    10.958108    48.832119999999996    R0
Au    4.380000    5.900520    48.832119999999996    R0
Au    13.140000    5.900520    48.832119999999996    R0
Au    7.300000    5.900520    48.832119999999996    R0
Au    16.059999    5.900520    48.832119999999996    R0
Au    10.220000    5.900520    48.832119999999996    R0
Au    8.760000    1.685863    51.21629    R0
Au    13.140000    9.272245    51.21629    R0
Au    2.920000    1.685863    51.21629    R0
Au    11.680000    1.685863    51.21629    R0
Au    7.300000    9.272245    51.21629    R0
Au    16.059999    9.272245    51.21629    R0
Au    5.840000    1.685863    51.21629    R0
Au    14.600000    1.685863    51.21629    R0
Au    10.220000    9.272245    51.21629    R0
Au    18.980000    9.272245    51.21629    R0
Au    10.220000    4.214657    51.21629    R0
Au    14.600000    11.801040    51.21629    R0
Au    4.380000    4.214657    51.21629    R0
Au    13.140000    4.214657    51.21629    R0
Au    8.760000    11.801040    51.21629    R0
Au    17.520000    11.801040    51.21629    R0
Au    7.300000    4.214657    51.21629    R0
Au    16.059999    4.214657    51.21629    R0
Au    11.680000    11.801040    51.21629    R0
Au    20.440001    11.801040    51.21629    R0
Au    11.680000    6.743451    51.21629    R0
Au    5.840000    6.743451    51.21629    R0
Au    14.600000    6.743451    51.21629    R0
Au    8.760000    6.743451    51.21629    R0
Au    17.520000    6.743451    51.21629    R0
Au    0.000000    0.000000    53.60046    R1
Au    8.760000    0.000000    53.60046    R1
Au    4.380000    7.586382    53.60046    R1
Au    13.140000    7.586382    53.60046    R1
Au    2.920000    0.000000    53.60046    R1
Au    11.680000    0.000000    53.60046    R1
Au    7.300000    7.586382    53.60046    R1
Au    16.059999    7.586382    53.60046    R1
Au    5.840000    0.000000    53.60046    R1
Au    10.220000    7.586382    53.60046    R1
Au    1.460000    2.528794    53.60046    R1
Au    10.220000    2.528794    53.60046    R1
Au    5.840000    10.115176    53.60046    R1
Au    14.600000    10.115176    53.60046    R1
Au    4.380000    2.528794    53.60046    R1
Au    13.140000    2.528794    53.60046    R1
Au    8.760000    10.115176    53.60046    R1
Au    17.520000    10.115176    53.60046    R1
Au    7.300000    2.528794    53.60046    R1
Au    11.680000    10.115176    53.60046    R1
Au    2.920000    5.057588    53.60046    R1
Au    11.680000    5.057588    53.60046    R1
Au    5.840000    5.057588    53.60046    R1
Au    14.600000    5.057588    53.60046    R1
Au    8.760000    5.057588    53.60046    R1
Au    1.460000    0.842931    55.984629999999996    R1
Au    10.220000    0.842931    55.984629999999996    R1
Au    5.840000    8.429314    55.984629999999996    R1
Au    14.600000    8.429314    55.984629999999996    R1
Au    4.380000    0.842931    55.984629999999996    R1
Au    13.140000    0.842931    55.984629999999996    R1
Au    8.760000    8.429314    55.984629999999996    R1
Au    17.520000    8.429314    55.984629999999996    R1
Au    7.300000    0.842931    55.984629999999996    R1
Au    11.680000    8.429314    55.984629999999996    R1
Au    2.920000    3.371726    55.984629999999996    R1
Au    11.680000    3.371726    55.984629999999996    R1
Au    7.300000    10.958108    55.984629999999996    R1
Au    16.059999    10.958108    55.984629999999996    R1
Au    5.840000    3.371726    55.984629999999996    R1
Au    14.600000    3.371726    55.984629999999996    R1
Au    10.220000    10.958108    55.984629999999996    R1
Au    18.980000    10.958108    55.984629999999996    R1
Au    8.760000    3.371726    55.984629999999996    R1
Au    13.140000    10.958108    55.984629999999996    R1
Au    4.380000    5.900520    55.984629999999996    R1
Au    13.140000    5.900520    55.984629999999996    R1
Au    7.300000    5.900520    55.984629999999996    R1
Au    16.059999    5.900520    55.984629999999996    R1
Au    10.220000    5.900520    55.984629999999996    R1
Au    8.760000    1.685863    58.3688    R1
Au    13.140000    9.272245    58.3688    R1
Au    2.920000    1.685863    58.3688    R1
Au    11.680000    1.685863    58.3688    R1
Au    7.300000    9.272245    58.3688    R1
Au    16.059999    9.272245    58.3688    R1
Au    5.840000    1.685863    58.3688    R1
Au    14.600000    1.685863    58.3688    R1
Au    10.220000    9.272245    58.3688    R1
Au    18.980000    9.272245    58.3688    R1
Au    10.220000    4.214657    58.3688    R1
Au    14.600000    11.801040    58.3688    R1
Au    4.380000    4.214657    58.3688    R1
Au    13.140000    4.214657    58.3688    R1
Au    8.760000    11.801040    58.3688    R1
Au    17.520000    11.801040    58.3688    R1
Au    7.300000    4.214657    58.3688    R1
Au    16.059999    4.214657    58.3688    R1
Au    11.680000    11.801040    58.3688    R1
Au    20.440001    11.801040    58.3688    R1
Au    11.680000    6.743451    58.3688    R1
Au    5.840000    6.743451    58.3688    R1
Au    14.600000    6.743451    58.3688    R1
Au    8.760000    6.743451    58.3688    R1
Au    17.520000    6.743451    58.3688    R1
Au    0.000000    0.000000    60.752969    R2
Au    8.760000    0.000000    60.752969    R2
Au    4.380000    7.586382    60.752969    R2
Au    13.140000    7.586382    60.752969    R2
Au    2.920000    0.000000    60.752969    R2
Au    11.680000    0.000000    60.752969    R2
Au    7.300000    7.586382    60.752969    R2
Au    16.059999    7.586382    60.752969    R2
Au    5.840000    0.000000    60.752969    R2
Au    10.220000    7.586382    60.752969    R2
Au    1.460000    2.528794    60.752969    R2
Au    10.220000    2.528794    60.752969    R2
Au    5.840000    10.115176    60.752969    R2
Au    14.600000    10.115176    60.752969    R2
Au    4.380000    2.528794    60.752969    R2
Au    13.140000    2.528794    60.752969    R2
Au    8.760000    10.115176    60.752969    R2
Au    17.520000    10.115176    60.752969    R2
Au    7.300000    2.528794    60.752969    R2
Au    11.680000    10.115176    60.752969    R2
Au    2.920000    5.057588    60.752969    R2
Au    11.680000    5.057588    60.752969    R2
Au    5.840000    5.057588    60.752969    R2
Au    14.600000    5.057588    60.752969    R2
Au    8.760000    5.057588    60.752969    R2
Au    1.460000    0.842931    63.13714    R2
Au    10.220000    0.842931    63.13714    R2
Au    5.840000    8.429314    63.13714    R2
Au    14.600000    8.429314    63.13714    R2
Au    4.380000    0.842931    63.13714    R2
Au    13.140000    0.842931    63.13714    R2
Au    8.760000    8.429314    63.13714    R2
Au    17.520000    8.429314    63.13714    R2
Au    7.300000    0.842931    63.13714    R2
Au    11.680000    8.429314    63.13714    R2
Au    2.920000    3.371726    63.13714    R2
Au    11.680000    3.371726    63.13714    R2
Au    7.300000    10.958108    63.13714    R2
Au    16.059999    10.958108    63.13714    R2
Au    5.840000    3.371726    63.13714    R2
Au    14.600000    3.371726    63.13714    R2
Au    10.220000    10.958108    63.13714    R2
Au    18.980000    10.958108    63.13714    R2
Au    8.760000    3.371726    63.13714    R2
Au    13.140000    10.958108    63.13714    R2
Au    4.380000    5.900520    63.13714    R2
Au    13.140000    5.900520    63.13714    R2
Au    7.300000    5.900520    63.13714    R2
Au    16.059999    5.900520    63.13714    R2
Au    10.220000    5.900520    63.13714    R2
Au    8.760000    1.685863    65.52131    R2
Au    13.140000    9.272245    65.52131    R2
Au    2.920000    1.685863    65.52131    R2
Au    11.680000    1.685863    65.52131    R2
Au    7.300000    9.272245    65.52131    R2