    297
 i =        2, E =     -4007.4006044249
Au    0.0000000000    0.0000000000    0.0000000000    L0
Au    8.7600000000    0.0000000000    0.0000000000    L0
Au    4.3800000000    7.5863825040    0.0000000000    L0
Au    13.1400000000    7.5863825040    0.0000000000    L0
Au    2.9200000000    0.0000000000    0.0000000000    L0
Au    11.6800000000    0.0000000000    0.0000000000    L0
Au    7.3000000000    7.5863825040    0.0000000000    L0
Au    16.0600000000    7.5863825040    0.0000000000    L0
Au    5.8400000000    0.0000000000    0.0000000000    L0
Au    14.6000000000    0.0000000000    0.0000000000    L0
Au    10.2200000000    7.5863825040    0.0000000000    L0
Au    18.9800000000    7.5863825040    0.0000000000    L0
Au    1.4600000000    2.5287941680    0.0000000000    L0
Au    10.2200000000    2.5287941680    0.0000000000    L0
Au    5.8400000000    10.1151766720    0.0000000000    L0
Au    14.6000000000    10.1151766720    0.0000000000    L0
Au    4.3800000000    2.5287941680    0.0000000000    L0
Au    13.1400000000    2.5287941680    0.0000000000    L0
Au    8.7600000000    10.1151766720    0.0000000000    L0
Au    17.5200000000    10.1151766720    0.0000000000    L0
Au    7.3000000000    2.5287941680    0.0000000000    L0
Au    16.0600000000    2.5287941680    0.0000000000    L0
Au    11.6800000000    10.1151766720    0.0000000000    L0
Au    20.4400000000    10.1151766720    0.0000000000    L0
Au    2.9200000000    5.0575883360    0.0000000000    L0
Au    11.6800000000    5.0575883360    0.0000000000    L0
Au    7.3000000000    12.6439708400    0.0000000000    L0
Au    16.0600000000    12.6439708400    0.0000000000    L0
Au    5.8400000000    5.0575883360    0.0000000000    L0
Au    14.6000000000    5.0575883360    0.0000000000    L0
Au    10.2200000000    12.6439708400    0.0000000000    L0
Au    18.9800000000    12.6439708400    0.0000000000    L0
Au    8.7600000000    5.0575883360    0.0000000000    L0
Au    17.5200000000    5.0575883360    0.0000000000    L0
Au    13.1400000000    12.6439708400    0.0000000000    L0
Au    21.9000000000    12.6439708400    0.0000000000    L0
Au    1.4600000000    0.8429312920    2.3841700720    L0
Au    10.2200000000    0.8429312920    2.3841700720    L0
Au    5.8400000000    8.4293137960    2.3841700720    L0
Au    14.6000000000    8.4293137960    2.3841700720    L0
Au    4.3800000000    0.8429312920    2.3841700720    L0
Au    13.1400000000    0.8429312920    2.3841700720    L0
Au    8.7600000000    8.4293137960    2.3841700720    L0
Au    17.5200000000    8.4293137960    2.3841700720    L0
Au    7.3000000000    0.8429312920    2.3841700720    L0
Au    16.0600000000    0.8429312920    2.3841700720    L0
Au    11.6800000000    8.4293137960    2.3841700720    L0
Au    20.4400000000    8.4293137960    2.3841700720    L0
Au    2.9200000000    3.3717254600    2.3841700720    L0
Au    11.6800000000    3.3717254600    2.3841700720    L0
Au    7.3000000000    10.9581079640    2.3841700720    L0
Au    16.0600000000    10.9581079640    2.3841700720    L0
Au    5.8400000000    3.3717254600    2.3841700720    L0
Au    14.6000000000    3.3717254600    2.3841700720    L0
Au    10.2200000000    10.9581079640    2.3841700720    L0
Au    18.9800000000    10.9581079640    2.3841700720    L0
Au    8.7600000000    3.3717254600    2.3841700720    L0
Au    17.5200000000    3.3717254600    2.3841700720    L0
Au    13.1400000000    10.9581079640    2.3841700720    L0
Au    21.9000000000    10.9581079640    2.3841700720    L0
Au    4.3800000000    5.9005196280    2.3841700720    L0
Au    13.1400000000    5.9005196280    2.3841700720    L0
Au    8.7600000000    13.4869021320    2.3841700720    L0
Au    17.5200000000    13.4869021320    2.3841700720    L0
Au    7.3000000000    5.9005196280    2.3841700720    L0
Au    16.0600000000    5.9005196280    2.3841700720    L0
Au    11.6800000000    13.4869021320    2.3841700720    L0
Au    20.4400000000    13.4869021320    2.3841700720    L0
Au    10.2200000000    5.9005196280    2.3841700720    L0
Au    18.9800000000    5.9005196280    2.3841700720    L0
Au    14.6000000000    13.4869021320    2.3841700720    L0
Au    23.3600000000    13.4869021320    2.3841700720    L0
Au    0.0000000000    1.6858628760    4.7683401440    L0
Au    8.7600000000    1.6858628760    4.7683401440    L0
Au    4.3800000000    9.2722453800    4.7683401440    L0
Au    13.1400000000    9.2722453800    4.7683401440    L0
Au    2.9200000000    1.6858628760    4.7683401440    L0
Au    11.6800000000    1.6858628760    4.7683401440    L0
Au    7.3000000000    9.2722453800    4.7683401440    L0
Au    16.0600000000    9.2722453800    4.7683401440    L0
Au    5.8400000000    1.6858628760    4.7683401440    L0
Au    14.6000000000    1.6858628760    4.7683401440    L0
Au    10.2200000000    9.2722453800    4.7683401440    L0
Au    18.9800000000    9.2722453800    4.7683401440    L0
Au    1.4600000000    4.2146570440    4.7683401440    L0
Au    10.2200000000    4.2146570440    4.7683401440    L0
Au    5.8400000000    11.8010395480    4.7683401440    L0
Au    14.6000000000    11.8010395480    4.7683401440    L0
Au    4.3800000000    4.2146570440    4.7683401440    L0
Au    13.1400000000    4.2146570440    4.7683401440    L0
Au    8.7600000000    11.8010395480    4.7683401440    L0
Au    17.5200000000    11.8010395480    4.7683401440    L0
Au    7.3000000000    4.2146570440    4.7683401440    L0
Au    16.0600000000    4.2146570440    4.7683401440    L0
Au    11.6800000000    11.8010395480    4.7683401440    L0
Au    20.4400000000    11.8010395480    4.7683401440    L0
Au    2.9200000000    6.7434512120    4.7683401440    L0
Au    11.6800000000    6.7434512120    4.7683401440    L0
Au    7.3000000000    14.3298337160    4.7683401440    L0
Au    16.0600000000    14.3298337160    4.7683401440    L0
Au    5.8400000000    6.7434512120    4.7683401440    L0
Au    14.6000000000    6.7434512120    4.7683401440    L0
Au    10.2200000000    14.3298337160    4.7683401440    L0
Au    18.9800000000    14.3298337160    4.7683401440    L0
Au    8.7600000000    6.7434512120    4.7683401440    L0
Au    17.5200000000    6.7434512120    4.7683401440    L0
Au    13.1400000000    14.3298337160    4.7683401440    L0
Au    21.9000000000    14.3298337160    4.7683401440    L0
H    11.7545009285    5.5387820347    11.0277845889    S
C    11.3228252093    6.1534174891    10.2358656441    S
C    11.2879204199    7.5468794996    10.3817991303    S
C    10.7366564236    8.3160966973    9.3437302803    S
H    10.7102404921    9.4029605442    9.4357999498    S
C    10.1755083533    7.7089567271    8.2239105591    S
H    9.7095534691    8.3157539399    7.4461562219    S
C    10.1678148399    6.3072166602    8.1126645885    S
C    10.7830925596    5.5323485076    9.1108790167    S
H    10.7971815126    4.4459880188    9.0238240214    S
C    11.7927073731    8.1920669440    11.6494242185    S
N    10.7935020555    9.1009901003    12.2575857589    S
H    12.6794705237    8.8099848222    11.4321684043    S
H    12.1197381249    7.4030045647    12.3503617836    S
C    11.1968180551    9.6731178152    13.5267962089    S
C    9.4636587835    8.5677818189    12.4794499574    S
C    8.1990619213    8.5120905140    20.2258097719    S
C    7.7874411612    7.1969036287    20.6777916452    S
C    8.9740348193    6.4625299338    21.0703992343    S
C    10.1276596618    7.3241400958    20.8640688615    S
C    9.6472842401    8.5898312739    20.3355685966    S
C    10.3877367742    9.2626848177    19.3591921692    S
C    11.6406290024    8.7095763764    18.8788397014    S
C    12.1062349579    7.4920314570    19.3932268675    S
C    11.3300030390    6.7859094216    20.3988891089    S
C    11.4288336951    5.3612434689    20.1203975914    S
C    10.3202758285    4.5326071957    20.3161753465    S
C    9.0691212173    5.0920013614    20.8017852642    S
C    7.9805832853    4.4054103707    20.1350017159    S
C    6.8319294679    5.1115624650    19.7587499327    S
C    6.7327271010    6.5318002990    20.0320441811    S
C    6.0564385252    7.1610103677    18.9139880711    S
C    5.7395576373    6.1253657056    17.9430852606    S
C    6.2137918381    4.8554366974    18.4672526829    S
C    6.7642785463    3.9058004612    17.6027014323    S
C    7.9576074645    3.1711923133    17.9946033109    S
C    8.5540694566    3.4183249661    19.2344433568    S
C    10.0006455468    3.4998705704    19.3451884989    S
C    10.7979634744    3.3402300944    18.2076713263    S
C    11.9466139855    4.2058016922    18.0007020563    S
C    12.2621353668    5.1944722357    18.9428697754    S
C    12.6800261996    6.5090579532    18.4948611597    S
C    12.7644903053    6.7846543061    17.1245800815    S
C    12.2795477141    8.0459469276    16.5929695103    S
C    11.7413274280    8.9920467259    17.4592549656    S
C    10.5292691022    9.7123683961    17.0544277751    S
C    9.9541761785    9.4824295007    15.8136505572    S
C    10.6505070254    8.7151354836    14.6866938456    S
C    11.6827147231    7.8049928977    15.2856636248    S
C    11.7448775684    6.4272839946    15.0403908213    S
C    12.4282508651    5.7666396236    16.1584024610    S
C    12.0320012981    4.5037700324    16.5861336363    S
C    10.9328151959    3.8091948291    15.9125027852    S
C    10.1780861432    3.0897089534    16.9176067638    S
C    8.7831499394    2.9992266624    16.8123052911    S
C    8.1038131039    3.6217944936    15.6922469280    S
C    6.8570744561    4.1808813206    16.1785720926    S
C    6.4054168406    5.4077345355    15.6734623091    S
C    5.8403741376    6.3948932753    16.5751692547    S
C    6.2693941989    7.7091678104    16.1280262937    S
C    7.0961817466    7.5460878438    14.9535802304    S
C    7.1736592689    6.1107215812    14.6635292592    S
C    8.3765277948    5.5834614296    14.2049378115    S
C    8.8442344177    4.3108522871    14.7238414173    S
C    10.2797721754    4.4093301061    14.8412501138    S
C    10.6704061351    5.7474513652    14.3811462131    S
C    9.5273494315    6.4447434215    13.9731110158    S
C    9.4259868096    7.9396091934    13.9438250957    S
C    8.1920499960    8.3679232838    14.7383102335    S
C    8.5275930495    9.3639024282    15.7140010621    S
C    7.7088721073    9.5556961116    16.8515041239    S
C    6.5572362412    8.7110135700    17.0611124530    S
C    6.4517532739    8.4310784866    18.4808462353    S
C    7.5439770006    9.1201582961    19.1498699130    S
C    8.3123733758    9.8178488834    18.1358783539    S
C    9.7069158036    9.8767788023    18.2322635130    S
H    9.1806761938    7.8417115974    11.7103032834    S
H    8.7358464304    9.3936054277    12.4575861350    S
S    9.1958039889    5.4466630024    6.9041063561    S
H    10.7173463044    10.6553469907    13.6600727266    S
H    12.2835765743    9.8087291044    13.5834448159    S
Au 8.76000   6.74345  24.0704 R0
Au    0.0000000000    0.0000000000    26.45457    R0
Au    8.7600000000    0.0000000000    26.45457    R0
Au    4.3800000000    7.5863825040    26.45457    R0
Au    13.1400000000    7.5863825040    26.45457    R0
Au    2.9200000000    0.0000000000    26.45457    R0
Au    11.6800000000    0.0000000000    26.45457    R0
Au    7.3000000000    7.5863825040    26.45457    R0
Au    16.0600000000    7.5863825040    26.45457    R0
Au    5.8400000000    0.0000000000    26.45457    R0
Au    14.6000000000    0.0000000000    26.45457    R0
Au    10.2200000000    7.5863825040    26.45457    R0
Au    18.9800000000    7.5863825040    26.45457    R0
Au    1.4600000000    2.5287941680    26.45457    R0
Au    10.2200000000    2.5287941680    26.45457    R0
Au    5.8400000000    10.1151766720    26.45457    R0
Au    14.6000000000    10.1151766720    26.45457    R0
Au    4.3800000000    2.5287941680    26.45457    R0
Au    13.1400000000    2.5287941680    26.45457    R0
Au    8.7600000000    10.1151766720    26.45457    R0
Au    17.5200000000    10.1151766720    26.45457    R0
Au    7.3000000000    2.5287941680    26.45457    R0
Au    16.0600000000    2.5287941680    26.45457    R0
Au    11.6800000000    10.1151766720    26.45457    R0
Au    20.4400000000    10.1151766720    26.45457    R0
Au    2.9200000000    5.0575883360    26.45457    R0
Au    11.6800000000    5.0575883360    26.45457    R0
Au    7.3000000000    12.6439708400    26.45457    R0
Au    16.0600000000    12.6439708400    26.45457    R0
Au    5.8400000000    5.0575883360    26.45457    R0
Au    14.6000000000    5.0575883360    26.45457    R0
Au    10.2200000000    12.6439708400    26.45457    R0
Au    18.9800000000    12.6439708400    26.45457    R0
Au    8.7600000000    5.0575883360    26.45457    R0
Au    17.5200000000    5.0575883360    26.45457    R0
Au    13.1400000000    12.6439708400    26.45457    R0
Au    21.9000000000    12.6439708400    26.45457    R0
Au    1.4600000000    0.8429312920    28.838740072    R0
Au    10.2200000000    0.8429312920    28.838740072    R0
Au    5.8400000000    8.4293137960    28.838740072    R0
Au    14.6000000000    8.4293137960    28.838740072    R0
Au    4.3800000000    0.8429312920    28.838740072    R0
Au    13.1400000000    0.8429312920    28.838740072    R0
Au    8.7600000000    8.4293137960    28.838740072    R0
Au    17.5200000000    8.4293137960    28.838740072    R0
Au    7.3000000000    0.8429312920    28.838740072    R0
Au    16.0600000000    0.8429312920    28.838740072    R0
Au    11.6800000000    8.4293137960    28.838740072    R0
Au    20.4400000000    8.4293137960    28.838740072    R0
Au    2.9200000000    3.3717254600    28.838740072    R0
Au    11.6800000000    3.3717254600    28.838740072    R0
Au    7.3000000000    10.9581079640    28.838740072    R0
Au    16.0600000000    10.9581079640    28.838740072    R0
Au    5.8400000000    3.3717254600    28.838740072    R0
Au    14.6000000000    3.3717254600    28.838740072    R0
Au    10.2200000000    10.9581079640    28.838740072    R0
Au    18.9800000000    10.9581079640    28.838740072    R0
Au    8.7600000000    3.3717254600    28.838740072    R0
Au    17.5200000000    3.3717254600    28.838740072    R0
Au    13.1400000000    10.9581079640    28.838740072    R0
Au    21.9000000000    10.9581079640    28.838740072    R0
Au    4.3800000000    5.9005196280    28.838740072    R0
Au    13.1400000000    5.9005196280    28.838740072    R0
Au    8.7600000000    13.4869021320    28.838740072    R0
Au    17.5200000000    13.4869021320    28.838740072    R0
Au    7.3000000000    5.9005196280    28.838740072    R0
Au    16.0600000000    5.9005196280    28.838740072    R0
Au    11.6800000000    13.4869021320    28.838740072    R0
Au    20.4400000000    13.4869021320    28.838740072    R0
Au    10.2200000000    5.9005196280    28.838740072    R0
Au    18.9800000000    5.9005196280    28.838740072    R0
Au    14.6000000000    13.4869021320    28.838740072    R0
Au    23.3600000000    13.4869021320    28.838740072    R0
Au    0.0000000000    1.6858628760    31.222910144    R0
Au    8.7600000000    1.6858628760    31.222910144    R0
Au    4.3800000000    9.2722453800    31.222910144    R0
Au    13.1400000000    9.2722453800    31.222910144    R0
Au    2.9200000000    1.6858628760    31.222910144    R0
Au    11.6800000000    1.6858628760    31.222910144    R0
Au    7.3000000000    9.2722453800    31.222910144    R0
Au    16.0600000000    9.2722453800    31.222910144    R0
Au    5.8400000000    1.6858628760    31.222910144    R0
Au    14.6000000000    1.6858628760    31.222910144    R0
Au    10.2200000000    9.2722453800    31.222910144    R0
Au    18.9800000000    9.2722453800    31.222910144    R0
Au    1.4600000000    4.2146570440    31.222910144    R0
Au    10.2200000000    4.2146570440    31.222910144    R0
Au    5.8400000000    11.8010395480    31.222910144    R0
Au    14.6000000000    11.8010395480    31.222910144    R0
Au    4.3800000000    4.2146570440    31.222910144    R0
Au    13.1400000000    4.2146570440    31.222910144    R0
Au    8.7600000000    11.8010395480    31.222910144    R0
Au    17.5200000000    11.8010395480    31.222910144    R0
Au    7.3000000000    4.2146570440    31.222910144    R0
Au    16.0600000000    4.2146570440    31.222910144    R0
Au    11.6800000000    11.8010395480    31.222910144    R0
Au    20.4400000000    11.8010395480    31.222910144    R0
Au    2.9200000000    6.7434512120    31.222910144    R0
Au    11.6800000000    6.7434512120    31.222910144    R0
Au    7.3000000000    14.3298337160    31.222910144    R0
Au    16.0600000000    14.3298337160    31.222910144    R0
Au    5.8400000000    6.7434512120    31.222910144    R0
Au    14.6000000000    6.7434512120    31.222910144    R0
Au    10.2200000000    14.3298337160    31.222910144    R0
Au    18.9800000000    14.3298337160    31.222910144    R0
Au    8.7600000000    6.7434512120    31.222910144    R0
Au    17.5200000000    6.7434512120    31.222910144    R0
Au    13.1400000000    14.3298337160    31.222910144    R0
Au    21.9000000000    14.3298337160    31.222910144    R0
