     231
 i =        4, E =     -2910.7442794038
Au    0.0000000000    0.0000000000    0.0000000000    L0
Au    8.7600000000    0.0000000000    0.0000000000    L0
Au    4.3800000000    7.5863820000    0.0000000000    L0
Au    13.1400000000    7.5863820000    0.0000000000    L0
Au    2.9200000000    0.0000000000    0.0000000000    L0
Au    11.6800000000    0.0000000000    0.0000000000    L0
Au    7.3000000000    7.5863820000    0.0000000000    L0
Au    16.0599990000    7.5863820000    0.0000000000    L0
Au    5.8400000000    0.0000000000    0.0000000000    L0
Au    10.2200000000    7.5863820000    0.0000000000    L0
Au    1.4600000000    2.5287940000    0.0000000000    L0
Au    10.2200000000    2.5287940000    0.0000000000    L0
Au    5.8400000000    10.1151760000    0.0000000000    L0
Au    14.6000000000    10.1151760000    0.0000000000    L0
Au    4.3800000000    2.5287940000    0.0000000000    L0
Au    13.1400000000    2.5287940000    0.0000000000    L0
Au    8.7600000000    10.1151760000    0.0000000000    L0
Au    17.5200000000    10.1151760000    0.0000000000    L0
Au    7.3000000000    2.5287940000    0.0000000000    L0
Au    11.6800000000    10.1151760000    0.0000000000    L0
Au    2.9200000000    5.0575880000    0.0000000000    L0
Au    11.6800000000    5.0575880000    0.0000000000    L0
Au    5.8400000000    5.0575880000    0.0000000000    L0
Au    14.6000000000    5.0575880000    0.0000000000    L0
Au    8.7600000000    5.0575880000    0.0000000000    L0
Au    1.4600000000    0.8429310000    2.3841700000    L0
Au    10.2200000000    0.8429310000    2.3841700000    L0
Au    5.8400000000    8.4293140000    2.3841700000    L0
Au    14.6000000000    8.4293140000    2.3841700000    L0
Au    4.3800000000    0.8429310000    2.3841700000    L0
Au    13.1400000000    0.8429310000    2.3841700000    L0
Au    8.7600000000    8.4293140000    2.3841700000    L0
Au    17.5200000000    8.4293140000    2.3841700000    L0
Au    7.3000000000    0.8429310000    2.3841700000    L0
Au    11.6800000000    8.4293140000    2.3841700000    L0
Au    2.9200000000    3.3717260000    2.3841700000    L0
Au    11.6800000000    3.3717260000    2.3841700000    L0
Au    7.3000000000    10.9581080000    2.3841700000    L0
Au    16.0599990000    10.9581080000    2.3841700000    L0
Au    5.8400000000    3.3717260000    2.3841700000    L0
Au    14.6000000000    3.3717260000    2.3841700000    L0
Au    10.2200000000    10.9581080000    2.3841700000    L0
Au    18.9800000000    10.9581080000    2.3841700000    L0
Au    8.7600000000    3.3717260000    2.3841700000    L0
Au    13.1400000000    10.9581080000    2.3841700000    L0
Au    4.3800000000    5.9005200000    2.3841700000    L0
Au    13.1400000000    5.9005200000    2.3841700000    L0
Au    7.3000000000    5.9005200000    2.3841700000    L0
Au    16.0599990000    5.9005200000    2.3841700000    L0
Au    10.2200000000    5.9005200000    2.3841700000    L0
Au    8.7600000000    1.6858630000    4.7683400000    L0
Au    13.1400000000    9.2722450000    4.7683400000    L0
Au    2.9200000000    1.6858630000    4.7683400000    L0
Au    11.6800000000    1.6858630000    4.7683400000    L0
Au    7.3000000000    9.2722450000    4.7683400000    L0
Au    16.0599990000    9.2722450000    4.7683400000    L0
Au    5.8400000000    1.6858630000    4.7683400000    L0
Au    14.6000000000    1.6858630000    4.7683400000    L0
Au    10.2200000000    9.2722450000    4.7683400000    L0
Au    18.9800000000    9.2722450000    4.7683400000    L0
Au    10.2200000000    4.2146570000    4.7683400000    L0
Au    14.6000000000    11.8010400000    4.7683400000    L0
Au    4.3800000000    4.2146570000    4.7683400000    L0
Au    13.1400000000    4.2146570000    4.7683400000    L0
Au    8.7600000000    11.8010400000    4.7683400000    L0
Au    17.5200000000    11.8010400000    4.7683400000    L0
Au    7.3000000000    4.2146570000    4.7683400000    L0
Au    16.0599990000    4.2146570000    4.7683400000    L0
Au    11.6800000000    11.8010400000    4.7683400000    L0
Au    20.4400010000    11.8010400000    4.7683400000    L0
Au    11.6800000000    6.7434510000    4.7683400000    L0
Au    5.8400000000    6.7434510000    4.7683400000    L0
Au    14.6000000000    6.7434510000    4.7683400000    L0
Au    8.7600000000    6.7434510000    4.7683400000    L0
Au    17.5200000000    6.7434510000    4.7683400000    L0
H    10.3987868686    3.6994857392    11.5195813852    S
C    10.2241767976    4.3328045589    10.6480590079    S
C    10.4458572003    5.7128236161    10.7387811350    S
C    10.2083107146    6.5083465643    9.6045230956    S
H    10.3709362770    7.5862538192    9.6600677675    S
C    9.7661441741    5.9423312188    8.4113103475    S
H    9.5911946689    6.5708759754    7.5362441729    S
C    9.5495436994    4.5566863396    8.3322908610    S
C    9.7827032946    3.7529047952    9.4616013248    S
H    9.6163400581    2.6775441935    9.4029082050    S
C    10.9442560988    6.3106241210    12.0304785884    S
N    9.9956448475    7.2738526041    12.6347150390    S
H    11.8729744850    6.8727906874    11.8427357880    S
H    11.2033078218    5.4933687454    12.7273197981    S
C    10.4521776253    7.8268568733    13.8943543736    S
C    8.6506801595    6.7941258817    12.8891690573    S
C    7.6470448465    6.8239453664    20.6867287675    S
C    7.1774151142    5.5348364950    21.1569130647    S
C    8.3332951245    4.7345382999    21.5103858040    S
C    9.5262699488    5.5287693026    21.2613180437    S
C    9.1003461978    6.8191651448    20.7459629834    S
C    9.8431790449    7.4473648663    19.7421278018    S
C    11.0449812343    6.8232780825    19.2198780394    S
C    11.4585264628    5.5820412528    19.7216018793    S
C    10.6789065944    4.9223412620    20.7560678581    S
C    10.6867088353    3.4941158169    20.4784841207    S
C    9.5403112594    2.7302897179    20.7154508262    S
C    8.3408768996    3.3605541538    21.2428862797    S
C    7.1922167369    2.7364315235    20.6166412873    S
C    6.0731270874    3.5062532857    20.2783827744    S
C    6.0646510933    4.9300795536    20.5503877985    S
C    5.3864781109    5.5954223892    19.4545321085    S
C    4.9776475027    4.5785424366    18.4982856443    S
C    5.3965130553    3.2842747080    19.0098981482    S
C    5.8611114151    2.3036161161    18.1298950283    S
C    7.0237798273    1.5027890356    18.4821769299    S
C    7.6765552613    1.7173556372    19.6995539602    S
C    9.1284450186    1.7163727107    19.7594505897    S
C    9.8751323353    1.5102823200    18.5953495186    S
C    11.0632881169    2.3087740057    18.3454555866    S
C    11.4672903449    3.2790616510    19.2728370720    S
C    11.9432997742    4.5672479006    18.8064541040    S
C    11.9951098052    4.8364447354    17.4329495130    S
C    11.5654742439    6.1228363766    16.9140011412    S
C    11.1114095200    7.0974502700    17.7964999607    S
C    9.9282699390    7.8842805672    17.4327856570    S
C    9.2967770236    7.6842213731    16.2150923195    S
C    9.9087409895    6.8828981281    15.0650364852    S
C    10.9107241122    5.9158271288    15.6275068424    S
C    10.8842593637    4.5360067029    15.3868473914    S
C    11.5671887994    3.8383835723    16.4825572344    S
C    11.1156926217    2.6001868852    16.9279352209    S
C    9.9556561396    1.9686833423    16.2956722219    S
C    9.1971534383    1.2937756908    17.3285534281    S
C    7.7964609136    1.2827907510    17.2723372745    S
C    7.1147422480    1.9417474509    16.1746785133    S
C    5.9196291773    2.5713754818    16.7023130851    S
C    5.5213812625    3.8214042428    16.2090734523    S
C    5.0456507920    4.8402898079    17.1266989586    S
C    5.5330182935    6.1272760353    16.6603251089    S
C    6.3067419361    5.9165095472    15.4571846534    S
C    6.2920194370    4.4783485988    15.1700313046    S
C    7.4461378189    3.8830272491    14.6716596616    S
C    7.8587754219    2.5868149560    15.1787901354    S
C    9.3006772668    2.6038374406    15.2460188625    S
C    9.7502825194    3.9170867757    14.7681900769    S
C    8.6355964573    4.6774099873    14.3965411441    S
C    8.6193481090    6.1759316741    14.3621241781    S
C    7.4388089330    6.6752714466    15.1985601452    S
C    7.8640419612    7.6492439695    16.1624882914    S
C    7.0988893012    7.8890514929    17.3278453320    S
C    5.9093271125    7.1118732986    17.5802634778    S
C    5.8377345271    6.8402855849    19.0037992120    S
C    6.9902473545    7.4667984056    19.6321373377    S
C    7.7610109479    8.1181247379    18.5897828723    S
C    9.1590159304    8.0977038229    18.6378831462    S
H    8.3273144699    6.0733294950    12.1301160226    S
H    7.9539795524    7.6462511824    12.8749483427    S
S    8.9412384498    3.6988454041    6.9023374589    S
H    10.0059314098    8.8221121769    14.0439479701    S
H    11.5437810579    7.9293303821    13.9207126856    S
Au   7.30000   4.21466  24.510389999999997 R0
Au    0.0000000000    0.0000000000    26.894560000000002    R0
Au    8.7600000000    0.0000000000    26.894560000000002    R0
Au    4.3800000000    7.5863820000    26.894560000000002    R0
Au    13.1400000000    7.5863820000    26.894560000000002    R0
Au    2.9200000000    0.0000000000    26.894560000000002    R0
Au    11.6800000000    0.0000000000    26.894560000000002    R0
Au    7.3000000000    7.5863820000    26.894560000000002    R0
Au    16.0599990000    7.5863820000    26.894560000000002    R0
Au    5.8400000000    0.0000000000    26.894560000000002    R0
Au    10.2200000000    7.5863820000    26.894560000000002    R0
Au    1.4600000000    2.5287940000    26.894560000000002    R0
Au    10.2200000000    2.5287940000    26.894560000000002    R0
Au    5.8400000000    10.1151760000    26.894560000000002    R0
Au    14.6000000000    10.1151760000    26.894560000000002    R0
Au    4.3800000000    2.5287940000    26.894560000000002    R0
Au    13.1400000000    2.5287940000    26.894560000000002    R0
Au    8.7600000000    10.1151760000    26.894560000000002    R0
Au    17.5200000000    10.1151760000    26.894560000000002    R0
Au    7.3000000000    2.5287940000    26.894560000000002    R0
Au    11.6800000000    10.1151760000    26.894560000000002    R0
Au    2.9200000000    5.0575880000    26.894560000000002    R0
Au    11.6800000000    5.0575880000    26.894560000000002    R0
Au    5.8400000000    5.0575880000    26.894560000000002    R0
Au    14.6000000000    5.0575880000    26.894560000000002    R0
Au    8.7600000000    5.0575880000    26.894560000000002    R0
Au    1.4600000000    0.8429310000    29.278730000000003    R0
Au    10.2200000000    0.8429310000    29.278730000000003    R0
Au    5.8400000000    8.4293140000    29.278730000000003    R0
Au    14.6000000000    8.4293140000    29.278730000000003    R0
Au    4.3800000000    0.8429310000    29.278730000000003    R0
Au    13.1400000000    0.8429310000    29.278730000000003    R0
Au    8.7600000000    8.4293140000    29.278730000000003    R0
Au    17.5200000000    8.4293140000    29.278730000000003    R0
Au    7.3000000000    0.8429310000    29.278730000000003    R0
Au    11.6800000000    8.4293140000    29.278730000000003    R0
Au    2.9200000000    3.3717260000    29.278730000000003    R0
Au    11.6800000000    3.3717260000    29.278730000000003    R0
Au    7.3000000000    10.9581080000    29.278730000000003    R0
Au    16.0599990000    10.9581080000    29.278730000000003    R0
Au    5.8400000000    3.3717260000    29.278730000000003    R0
Au    14.6000000000    3.3717260000    29.278730000000003    R0
Au    10.2200000000    10.9581080000    29.278730000000003    R0
Au    18.9800000000    10.9581080000    29.278730000000003    R0
Au    8.7600000000    3.3717260000    29.278730000000003    R0
Au    13.1400000000    10.9581080000    29.278730000000003    R0
Au    4.3800000000    5.9005200000    29.278730000000003    R0
Au    13.1400000000    5.9005200000    29.278730000000003    R0
Au    7.3000000000    5.9005200000    29.278730000000003    R0
Au    16.0599990000    5.9005200000    29.278730000000003    R0
Au    10.2200000000    5.9005200000    29.278730000000003    R0
Au    8.7600000000    1.6858630000    31.6629    R0
Au    13.1400000000    9.2722450000    31.6629    R0
Au    2.9200000000    1.6858630000    31.6629    R0
Au    11.6800000000    1.6858630000    31.6629    R0
Au    7.3000000000    9.2722450000    31.6629    R0
Au    16.0599990000    9.2722450000    31.6629    R0
Au    5.8400000000    1.6858630000    31.6629    R0
Au    14.6000000000    1.6858630000    31.6629    R0
Au    10.2200000000    9.2722450000    31.6629    R0
Au    18.9800000000    9.2722450000    31.6629    R0
Au    10.2200000000    4.2146570000    31.6629    R0
Au    14.6000000000    11.8010400000    31.6629    R0
Au    4.3800000000    4.2146570000    31.6629    R0
Au    13.1400000000    4.2146570000    31.6629    R0
Au    8.7600000000    11.8010400000    31.6629    R0
Au    17.5200000000    11.8010400000    31.6629    R0
Au    7.3000000000    4.2146570000    31.6629    R0
Au    16.0599990000    4.2146570000    31.6629    R0
Au    11.6800000000    11.8010400000    31.6629    R0
Au    20.4400010000    11.8010400000    31.6629    R0
Au    11.6800000000    6.7434510000    31.6629    R0
Au    5.8400000000    6.7434510000    31.6629    R0
Au    14.6000000000    6.7434510000    31.6629    R0
Au    8.7600000000    6.7434510000    31.6629    R0
Au    17.5200000000    6.7434510000    31.6629    R0
