     187
 i =      178, E =     -5113.2403128728
 Au         0.0000000000        0.0000000000       -0.2346134471
 Au         8.7600000000        0.0000000000       -0.2229103556
 Au         4.3800000000        7.5863820000       -0.1881483350
 Au        13.1400000000        7.5863820000       -0.1512573923
 Au         2.9200000000        0.0000000000       -0.2496766264
 Au        11.6800000000        0.0000000000       -0.2224422496
 Au         7.3000000000        7.5863820000       -0.1605372757
 Au        16.0599990000        7.5863820000       -0.1863109854
 Au         5.8400000000        0.0000000000       -0.2352407417
 Au        10.2200000000        7.5863820000       -0.1834474374
 Au         1.4600000000        2.5287940000       -0.2165023977
 Au        10.2200000000        2.5287940000       -0.2079061090
 Au         5.8400000000       10.1151760000       -0.2086402685
 Au        14.6000000000       10.1151760000       -0.2077014939
 Au         4.3800000000        2.5287940000       -0.2173118584
 Au        13.1400000000        2.5287940000       -0.1970103237
 Au         8.7600000000       10.1151760000       -0.2284668714
 Au        17.5200000000       10.1151760000       -0.2158963212
 Au         7.3000000000        2.5287940000       -0.1988218562
 Au        11.6800000000       10.1151760000       -0.2269939551
 Au         2.9200000000        5.0575880000       -0.2112696222
 Au        11.6800000000        5.0575880000       -0.1484154957
 Au         5.8400000000        5.0575880000       -0.1413451659
 Au        14.6000000000        5.0575880000       -0.1377966595
 Au         8.7600000000        5.0575880000       -0.1541901727
 Au         1.4600000000        0.8429310000        2.3918251862
 Au        10.2200000000        0.8429310000        2.4048926408
 Au         5.8400000000        8.4293140000        2.4333252832
 Au        14.6000000000        8.4293140000        2.4373384270
 Au         4.3800000000        0.8429310000        2.3914237917
 Au        13.1400000000        0.8429310000        2.4067790277
 Au         8.7600000000        8.4293140000        2.4202849450
 Au        17.5200000000        8.4293140000        2.4285437626
 Au         7.3000000000        0.8429310000        2.4052928829
 Au        11.6800000000        8.4293140000        2.4271084799
 Au         2.9200000000        3.3717260000        2.4128181418
 Au        11.6800000000        3.3717260000        2.4161699474
 Au         7.3000000000       10.9581080000        2.3947585378
 Au        16.0599990000       10.9581080000        2.4072095460
 Au         5.8400000000        3.3717260000        2.4302564620
 Au        14.6000000000        3.3717260000        2.4325211936
 Au        10.2200000000       10.9581080000        2.3511621054
 Au        18.9800000000       10.9581080000        2.4075447644
 Au         8.7600000000        3.3717260000        2.4136699169
 Au        13.1400000000       10.9581080000        2.3953929912
 Au         4.3800000000        5.9005200000        2.4355899165
 Au        13.1400000000        5.9005200000        2.5469486836
 Au         7.3000000000        5.9005200000        2.5357725007
 Au        16.0599990000        5.9005200000        2.4380263379
 Au        10.2200000000        5.9005200000        2.4690856032
 Au         8.7600000000        1.6858630000        5.0324884870
 Au        13.1400000000        9.2722450000        5.0218071625
 Au         2.9200000000        1.6858630000        5.0239974189
 Au        11.6800000000        1.6858630000        5.0343568796
 Au         7.3000000000        9.2722450000        5.0171971125
 Au        16.0599990000        9.2722450000        5.0506735036
 Au         5.8400000000        1.6858630000        5.0352728747
 Au        14.6000000000        1.6858630000        5.0365374274
 Au        10.2200000000        9.2722450000        4.8924084501
 Au        18.9800000000        9.2722450000        5.0500956498
 Au        10.2200000000        4.2146570000        4.9458960408
 Au        14.6000000000       11.8010400000        5.0271897753
 Au         4.3800000000        4.2146570000        5.0543548576
 Au        13.1400000000        4.2146570000        5.0779389741
 Au         8.7600000000       11.8010400000        5.0022374022
 Au        17.5200000000       11.8010400000        5.0283849591
 Au         7.3000000000        4.2146570000        5.0713640726
 Au        16.0599990000        4.2146570000        5.0557280892
 Au        11.6800000000       11.8010400000        5.0025561722
 Au        20.4400010000       11.8010400000        5.0286432935
 Au        11.6800000000        6.7434510000        5.2029254430
 Au         5.8400000000        6.7434510000        5.0797272187
 Au        14.6000000000        6.7434510000        5.0858104657
 Au         8.7600000000        6.7434510000        5.1630951764
 Au        17.5200000000        6.7434510000        5.0589203785
  C         9.9643930298        3.8271752931       19.6816038585
  C        11.0977766810        3.1355789048       19.2083963188
  C        10.9963252147        2.3203547891       18.0852094911
  C         9.7755766649        2.1603496090       17.4059650364
  C         8.7204216804        3.6163008091       19.0532007744
  C         8.6375820557        2.7988411434       17.9299667477
  C        10.0274174401        3.2129618137        9.9307895273
  H        11.8880595464        1.8116897620       17.7125751229
  S        10.1370667787        5.1192872373       20.8619315105
  H         7.8348467796        4.1238381755       19.4358653738
  H         7.6722564432        2.6657060448       17.4367303014
  H        12.0564949969        3.2728799050       19.7087121351
  C         8.8503851596        3.8019908320        9.4395140562
  C         8.8909473091        4.8816599804        8.5610090771
  C        10.1312609597        5.4058385247        8.1528642090
  C        11.3189133767        4.7961495604        8.5964989789
  C        11.2571631842        3.7164691398        9.4751023299
  H         7.9674719630        5.3343544705        8.1996742120
  H         7.8811540901        3.4110706265        9.7559664601
  H        12.2821689708        5.1819011887        8.2624441133
  H        12.1867682381        3.2587947996        9.8197916251
  S        10.1896642657        6.9401248065        7.2716540410
  C         9.7077485711        1.4148624648       16.0975642861
  C         9.9683155603        2.1333759391       10.9817591614
  C         9.9741361739        2.7384353367       12.4010701281
  C         9.8860870690        2.3808901394       14.9065910884
  H        10.4898928655        0.6405694501       16.0633905371
  H         8.7389534048        0.8988940242       16.0054956896
  H         9.0572748946        1.5297361926       10.8458720245
  H        10.8247831562        1.4502808672       10.8702908942
  C         9.8495994496        1.7099190666       13.5298873600
  H        10.8411480885        2.9186040223       15.0265265642
  H         9.0992124277        3.1517228933       14.9580029564
  H        10.6638549451        0.9691870863       13.4537725347
  H         8.9082826382        1.1457760022       13.4142754990
  H        10.9006941000        3.3213696058       12.5342630276
  H         9.1484701068        3.4651866526       12.4790345345
 Au         8.7600020000        1.6858630000       23.2303966814
 Au        13.1400000000        9.2722460000       23.2825876390
 Au         2.9200000000        1.6858630000       23.2736018853
 Au        11.6800000000        1.6858630000       23.2282932157
 Au         7.3000000000        9.2722460000       23.2779611178
 Au        16.0599990000        9.2722460000       23.2765223895
 Au         5.8400010000        1.6858630000       23.2554918370
 Au        14.6000000000        1.6858630000       23.2584033408
 Au        10.2200000000        9.2722460000       23.2900846573
 Au        18.9800000000        9.2722460000       23.2754934997
 Au        10.2200010000        4.2146570000       23.1332932059
 Au        14.6000000000       11.8010400000       23.2591131937
 Au         4.3800000000        4.2146570000       23.2648483820
 Au        13.1400000000        4.2146570000       23.2498049407
 Au         8.7600000000       11.8010400000       23.2790718457
 Au        17.5200000000       11.8010400000       23.2450949066
 Au         7.3000000000        4.2146570000       23.2492947687
 Au        16.0599990000        4.2146570000       23.2665092911
 Au        11.6800000000       11.8010400000       23.2788381653
 Au        20.4400010000       11.8010400000       23.2612377332
 Au        11.6800000000        6.7434510000       23.3524227300
 Au         5.8400000000        6.7434510000       23.2753102306
 Au        14.6000000000        6.7434510000       23.2791525864
 Au         8.7600000000        6.7434510000       23.3193427759
 Au        17.5200000000        6.7434510000       23.2777733045
 Au         1.4600000000        0.8429310000       25.8983918296
 Au        10.2200000000        0.8429310000       25.8465695751
 Au         5.8400010000        8.4293140000       25.9010519148
 Au        14.6000000000        8.4293140000       25.9046323417
 Au         4.3800000000        0.8429310000       25.8963272308
 Au        13.1400010000        0.8429310000       25.8692021768
 Au         8.7600000000        8.4293140000       25.9010554533
 Au        17.5200000000        8.4293140000       25.9038357715
 Au         7.3000010000        0.8429310000       25.8656797262
 Au        11.6800000000        8.4293140000       25.9173668179
 Au         2.9200000000        3.3717260000       25.8979594532
 Au        11.6800010000        3.3717260000       25.7936725818
 Au         7.3000000000       10.9581090000       25.9020711709
 Au        16.0599980000       10.9581090000       25.8850659414
 Au         5.8400000000        3.3717260000       25.8715524323
 Au        14.6000000000        3.3717260000       25.8753385225
 Au        10.2200000000       10.9581090000       25.9075022404
 Au        18.9800000000       10.9581090000       25.8864298190
 Au         8.7600000000        3.3717260000       25.7990416116
 Au        13.1399990000       10.9581090000       25.9014529919
 Au         4.3800000000        5.9005200000       25.8972446296
 Au        13.1400000000        5.9005200000       25.8954287983
 Au         7.3000000000        5.9005200000       25.8824481771
 Au        16.0599990000        5.9005200000       25.8992091725
 Au        10.2200000000        5.9005200000       25.8801124709
 Au         0.0000000000        0.0000000000       28.5208478210
 Au         8.7600000000        0.0000000000       28.4792875458
 Au         4.3800000000        7.5863820000       28.5269528895
 Au        13.1399990000        7.5863820000       28.5237673881
 Au         2.9200000000        0.0000000000       28.5231692286
 Au        11.6800000000        0.0000000000       28.4815481002
 Au         7.3000000000        7.5863820000       28.5124302466
 Au        16.0599990000        7.5863820000       28.5299396151
 Au         5.8400000000        0.0000000000       28.5161077662
 Au        10.2200000000        7.5863820000       28.5115595523
 Au         1.4600000000        2.5287940000       28.5191638126
 Au        10.2200000000        2.5287940000       28.4392920542
 Au         5.8400000000       10.1151760000       28.5280607534
 Au        14.6000000000       10.1151760000       28.5278397358
 Au         4.3800000000        2.5287940000       28.5149801247
 Au        13.1400000000        2.5287940000       28.4562726737
 Au         8.7600000000       10.1151760000       28.5264959027
 Au        17.5200000000       10.1151760000       28.5201461461
 Au         7.3000000000        2.5287940000       28.4547304600
 Au        11.6800000000       10.1151760000       28.5335016867
 Au         2.9200000000        5.0575880000       28.5315092284
 Au        11.6800000000        5.0575880000       28.4874612491
 Au         5.8400000000        5.0575880000       28.4964654734
 Au        14.6000000000        5.0575880000       28.5030329873
 Au         8.7600000000        5.0575880000       28.4822441026
