37
	Energy:      27.4097226
C          0.80127       11.94009       -5.50232
C          0.39367       12.18528       -6.81741
C          0.42661       11.15801       -7.76527
C          0.87053        9.87281       -7.40617
C          1.24082       10.66415       -5.13542
C          1.27468        9.63452       -6.08090
C          3.85535        7.39365      -13.89843
H          0.10305       11.36556       -8.77730
S          0.75810       13.25623       -4.29038
H          1.55626       10.46778       -4.11850
H          1.61792        8.65335       -5.77734
H          0.05006       13.17026       -7.10708
C          5.23288        7.54496      -13.65910
C          6.10856        7.81530      -14.71499
C          5.61907        7.93541      -16.01948
C          4.25115        7.78293      -16.26728
C          3.37277        7.51221      -15.21354
H          7.16679        7.92985      -14.51702
H          5.63076        7.45108      -12.65669
H          3.86637        7.87335      -17.27522
H          2.31710        7.39724      -15.42570
S          6.74157        8.28119      -17.36979
C          0.90370        8.76024       -8.42570
C          2.90742        7.09781      -12.76165
C          2.88174        8.24012      -11.73634
C          1.87574        9.07374       -9.57184
H         -0.12248        8.60967       -8.82600
H          1.22587        7.81066       -7.94390
H          3.22062        6.15096      -12.27039
H          1.87560        6.95557      -13.15248
C          1.90692        7.93081      -10.59373
H          1.56450       10.00835      -10.08657
H          2.89586        9.22011       -9.15258
H          0.88593        7.78511      -11.01083
H          2.22357        6.99265      -10.08656
H          2.56587        9.17756      -12.24554
H          3.89793        8.39013      -11.31188
