     222
 i =      551, E =     -6157.2555788402
 Au         0.0000000000        0.0000000000        0.0000000000
 Au         8.7600000000        0.0000000000        0.0000000000
 Au         4.3800000000        7.5863820000        0.0000000000
 Au        13.1400000000        7.5863820000        0.0000000000
 Au         2.9200000000        0.0000000000        0.0000000000
 Au        11.6800000000        0.0000000000        0.0000000000
 Au         7.3000000000        7.5863820000        0.0000000000
 Au        16.0599990000        7.5863820000        0.0000000000
 Au         5.8400000000        0.0000000000        0.0000000000
 Au        14.6000000000        0.0000000000        0.0000000000
 Au        10.2200000000        7.5863820000        0.0000000000
 Au        18.9800000000        7.5863820000        0.0000000000
 Au         1.4600000000        2.5287940000        0.0000000000
 Au        10.2200000000        2.5287940000        0.0000000000
 Au         5.8400000000       10.1151760000        0.0000000000
 Au        14.6000000000       10.1151760000        0.0000000000
 Au         4.3800000000        2.5287940000        0.0000000000
 Au        13.1400000000        2.5287940000        0.0000000000
 Au         8.7600000000       10.1151760000        0.0000000000
 Au        17.5200000000       10.1151760000        0.0000000000
 Au         7.3000000000        2.5287940000        0.0000000000
 Au        16.0599990000        2.5287940000        0.0000000000
 Au        11.6800000000       10.1151760000        0.0000000000
 Au        20.4400010000       10.1151760000        0.0000000000
 Au         2.9200000000        5.0575880000        0.0000000000
 Au        11.6800000000        5.0575880000        0.0000000000
 Au         5.8400000000        5.0575880000        0.0000000000
 Au        14.6000000000        5.0575880000        0.0000000000
 Au         8.7600000000        5.0575880000        0.0000000000
 Au        17.5200000000        5.0575880000        0.0000000000
 Au         1.4600000000        0.8429310000        2.3841700000
 Au        10.2200000000        0.8429310000        2.3841700000
 Au         5.8400000000        8.4293140000        2.3841700000
 Au        14.6000000000        8.4293140000        2.3841700000
 Au         4.3800000000        0.8429310000        2.3841700000
 Au        13.1400000000        0.8429310000        2.3841700000
 Au         8.7600000000        8.4293140000        2.3841700000
 Au        17.5200000000        8.4293140000        2.3841700000
 Au         7.3000000000        0.8429310000        2.3841700000
 Au        16.0599990000        0.8429310000        2.3841700000
 Au        11.6800000000        8.4293140000        2.3841700000
 Au        20.4400010000        8.4293140000        2.3841700000
 Au         2.9200000000        3.3717260000        2.3841700000
 Au        11.6800000000        3.3717260000        2.3841700000
 Au         7.3000000000       10.9581080000        2.3841700000
 Au        16.0599990000       10.9581080000        2.3841700000
 Au         5.8400000000        3.3717260000        2.3841700000
 Au        14.6000000000        3.3717260000        2.3841700000
 Au        10.2200000000       10.9581080000        2.3841700000
 Au        18.9800000000       10.9581080000        2.3841700000
 Au         8.7600000000        3.3717260000        2.3841700000
 Au        17.5200000000        3.3717260000        2.3841700000
 Au        13.1400000000       10.9581080000        2.3841700000
 Au        21.9000000000       10.9581080000        2.3841700000
 Au         4.3800000000        5.9005200000        2.3841700000
 Au        13.1400000000        5.9005200000        2.3841700000
 Au         7.3000000000        5.9005200000        2.3841700000
 Au        16.0599990000        5.9005200000        2.3841700000
 Au        10.2200000000        5.9005200000        2.3841700000
 Au        18.9800000000        5.9005200000        2.3841700000
 Au         0.0000000000        1.6858630000        4.7683400000
 Au         8.7600000000        1.6858630000        4.7683400000
 Au         4.3800000000        9.2722450000        4.7683400000
 Au        13.1400000000        9.2722450000        4.7683400000
 Au         2.9200000000        1.6858630000        4.7683400000
 Au        11.6800000000        1.6858630000        4.7683400000
 Au         7.3000000000        9.2722450000        4.7683400000
 Au        16.0599990000        9.2722450000        4.7683400000
 Au         5.8400000000        1.6858630000        4.7683400000
 Au        14.6000000000        1.6858630000        4.7683400000
 Au        10.2200000000        9.2722450000        4.7683400000
 Au        18.9800000000        9.2722450000        4.7683400000
 Au         1.4600000000        4.2146570000        4.7683400000
 Au        10.2200000000        4.2146570000        4.7683400000
 Au         5.8400000000       11.8010400000        4.7683400000
 Au        14.6000000000       11.8010400000        4.7683400000
 Au         4.3800000000        4.2146570000        4.7683400000
 Au        13.1400000000        4.2146570000        4.7683400000
 Au         8.7600000000       11.8010400000        4.7683400000
 Au        17.5200000000       11.8010400000        4.7683400000
 Au         7.3000000000        4.2146570000        4.7683400000
 Au        16.0599990000        4.2146570000        4.7683400000
 Au        11.6800000000       11.8010400000        4.7683400000
 Au        20.4400010000       11.8010400000        4.7683400000
 Au         2.9200000000        6.7434510000        4.7683400000
 Au        11.6800000000        6.7434510000        4.7683400000
 Au         5.8400000000        6.7434510000        4.7683400000
 Au        14.6000000000        6.7434510000        4.7683400000
 Au         8.7600000000        6.7434510000        4.7683400000
 Au        17.5200000000        6.7434510000        4.7683400000
  C         7.2436923323        8.7961842281       19.4729369369
  C         8.5839217080        8.3998409164       19.3289389981
  C         9.1880709755        8.4305942805       18.0738112459
  C         8.4813634409        8.8437119577       16.9252791562
  C         6.5479350588        9.2832732303       18.3473281888
  C         7.1583639704        9.2964370029       17.0996467321
  C         9.0732035644        8.7456349044       15.5721277844
  C        10.4292090689        9.0190846536       15.3230927403
  C        10.9792835269        8.8557750015       14.0493056023
  C        10.1935850237        8.4070309934       12.9804908348
  C         8.2830112861        8.3246259108       14.4831563088
  C         8.8328182139        8.1549530136       13.2163927551
  C        10.7788091028        8.0824675796       11.6026051797
  C        10.0455818487        8.7196580540       10.4267877222
  C         9.8227592375        7.9665459830        9.2646221936
  C         9.1546050464        8.5071928150        8.1678831507
  C         8.7078129017        9.8368322634        8.2004942962
  C         9.5915845166       10.0464724497       10.4570047435
  C         8.9459634417       10.6073222694        9.3562608691
  N        12.2283282796        8.3339749447       11.5248623749
  H        10.6793398139        6.9917178802       11.4728597308
  C        13.2091842277        7.4405324181       11.9290875653
  C        14.4030814998        8.1071521042       11.7878423445
  N        14.1922981944        9.3866429484       11.3128776152
  C        12.8803528081        9.4931272192       11.1708206357
  H         9.1352685901        8.0280401614       20.1938446309
  H        10.2131534861        8.0712215083       17.9736152346
  S         6.2634267459        8.5401036336       20.9262409181
  H         5.5177617170        9.6232542421       18.4546777369
  H         6.5988455070        9.6690229815       16.2408570041
  H         7.2317458031        8.0826040372       14.6434452963
  H        11.0648431636        9.3786382432       16.1334996245
  H        12.0371322660        9.0684306794       13.8944650392
  H         8.1976453498        7.8028120001       12.4013839722
  H         9.7319358613       10.6492229998       11.3556860950
  H        10.1657571949        6.9309640379        9.2171902796
  H         8.9585725650        7.8879615820        7.2909435792
  S         7.6993671047       10.5878492018        6.9434682565
  H         8.6014820377       11.6407705229        9.3960136422
  H        15.4026871702        7.7361220995       11.9931494434
  H        12.9606041526        6.4413510508       12.2681297838
  H        12.3521423489       10.3634033407       10.7984051417
 Au         0.0000000000        0.0000000000       23.0678022631
 Au         8.7600000000        0.0000000000       23.0678022631
 Au         4.3800000000        7.5863820000       23.0678022631
 Au        13.1400000000        7.5863820000       23.0678022631
 Au         2.9200000000        0.0000000000       23.0678022631
 Au        11.6800000000        0.0000000000       23.0678022631
 Au         7.3000000000        7.5863820000       23.0678022631
 Au        16.0599990000        7.5863820000       23.0678022631
 Au         5.8400000000        0.0000000000       23.0678022631
 Au        14.6000000000        0.0000000000       23.0678022631
 Au        10.2200000000        7.5863820000       23.0678022631
 Au        18.9800000000        7.5863820000       23.0678022631
 Au         1.4600000000        2.5287940000       23.0678022631
 Au        10.2200000000        2.5287940000       23.0678022631
 Au         5.8400000000       10.1151760000       23.0678022631
 Au        14.6000000000       10.1151760000       23.0678022631
 Au         4.3800000000        2.5287940000       23.0678022631
 Au        13.1400000000        2.5287940000       23.0678022631
 Au         8.7600000000       10.1151760000       23.0678022631
 Au        17.5200000000       10.1151760000       23.0678022631
 Au         7.3000000000        2.5287940000       23.0678022631
 Au        16.0599990000        2.5287940000       23.0678022631
 Au        11.6800000000       10.1151760000       23.0678022631
 Au        20.4400010000       10.1151760000       23.0678022631
 Au         2.9200000000        5.0575880000       23.0678022631
 Au        11.6800000000        5.0575880000       23.0678022631
 Au         5.8400000000        5.0575880000       23.0678022631
 Au        14.6000000000        5.0575880000       23.0678022631
 Au         8.7600000000        5.0575880000       23.0678022631
 Au        17.5200000000        5.0575880000       23.0678022631
 Au         1.4600000000        0.8429310000       25.4519722631
 Au        10.2200000000        0.8429310000       25.4519722631
 Au         5.8400000000        8.4293140000       25.4519722631
 Au        14.6000000000        8.4293140000       25.4519722631
 Au         4.3800000000        0.8429310000       25.4519722631
 Au        13.1400000000        0.8429310000       25.4519722631
 Au         8.7600000000        8.4293140000       25.4519722631
 Au        17.5200000000        8.4293140000       25.4519722631
 Au         7.3000000000        0.8429310000       25.4519722631
 Au        16.0599990000        0.8429310000       25.4519722631
 Au        11.6800000000        8.4293140000       25.4519722631
 Au        20.4400010000        8.4293140000       25.4519722631
 Au         2.9200000000        3.3717260000       25.4519722631
 Au        11.6800000000        3.3717260000       25.4519722631
 Au         7.3000000000       10.9581080000       25.4519722631
 Au        16.0599990000       10.9581080000       25.4519722631
 Au         5.8400000000        3.3717260000       25.4519722631
 Au        14.6000000000        3.3717260000       25.4519722631
 Au        10.2200000000       10.9581080000       25.4519722631
 Au        18.9800000000       10.9581080000       25.4519722631
 Au         8.7600000000        3.3717260000       25.4519722631
 Au        17.5200000000        3.3717260000       25.4519722631
 Au        13.1400000000       10.9581080000       25.4519722631
 Au        21.9000000000       10.9581080000       25.4519722631
 Au         4.3800000000        5.9005200000       25.4519722631
 Au        13.1400000000        5.9005200000       25.4519722631
 Au         7.3000000000        5.9005200000       25.4519722631
 Au        16.0599990000        5.9005200000       25.4519722631
 Au        10.2200000000        5.9005200000       25.4519722631
 Au        18.9800000000        5.9005200000       25.4519722631
 Au         0.0000000000        1.6858630000       27.8361422631
 Au         8.7600000000        1.6858630000       27.8361422631
 Au         4.3800000000        9.2722450000       27.8361422631
 Au        13.1400000000        9.2722450000       27.8361422631
 Au         2.9200000000        1.6858630000       27.8361422631
 Au        11.6800000000        1.6858630000       27.8361422631
 Au         7.3000000000        9.2722450000       27.8361422631
 Au        16.0599990000        9.2722450000       27.8361422631
 Au         5.8400000000        1.6858630000       27.8361422631
 Au        14.6000000000        1.6858630000       27.8361422631
 Au        10.2200000000        9.2722450000       27.8361422631
 Au        18.9800000000        9.2722450000       27.8361422631
 Au         1.4600000000        4.2146570000       27.8361422631
 Au        10.2200000000        4.2146570000       27.8361422631
 Au         5.8400000000       11.8010400000       27.8361422631
 Au        14.6000000000       11.8010400000       27.8361422631
 Au         4.3800000000        4.2146570000       27.8361422631
 Au        13.1400000000        4.2146570000       27.8361422631
 Au         8.7600000000       11.8010400000       27.8361422631
 Au        17.5200000000       11.8010400000       27.8361422631
 Au         7.3000000000        4.2146570000       27.8361422631
 Au        16.0599990000        4.2146570000       27.8361422631
 Au        11.6800000000       11.8010400000       27.8361422631
 Au        20.4400010000       11.8010400000       27.8361422631
 Au         2.9200000000        6.7434510000       27.8361422631
 Au        11.6800000000        6.7434510000       27.8361422631
 Au         5.8400000000        6.7434510000       27.8361422631
 Au        14.6000000000        6.7434510000       27.8361422631
 Au         8.7600000000        6.7434510000       27.8361422631
 Au        17.5200000000        6.7434510000       27.8361422631
 Au    0.000000    0.000000    58.83035239909    R1
Au    8.760000    0.000000    58.83035239909    R1
Au    4.380000    7.586382    58.83035239909    R1
Au    13.140000    7.586382    58.83035239909    R1
Au    2.920000    0.000000    58.83035239909    R1
Au    11.680000    0.000000    58.83035239909    R1
Au    7.300000    7.586382    58.83035239909    R1
Au    16.059999    7.586382    58.83035239909    R1
Au    5.840000    0.000000    58.83035239909    R1
Au    14.600000    0.000000    58.83035239909    R1
Au    10.220000    7.586382    58.83035239909    R1
Au    18.980000    7.586382    58.83035239909    R1
Au    1.460000    2.528794    58.83035239909    R1
Au    10.220000    2.528794    58.83035239909    R1
Au    5.840000    10.115176    58.83035239909    R1
Au    14.600000    10.115176    58.83035239909    R1
Au    4.380000    2.528794    58.83035239909    R1
Au    13.140000    2.528794    58.83035239909    R1
Au    8.760000    10.115176    58.83035239909    R1
Au    17.520000    10.115176    58.83035239909    R1
Au    7.300000    2.528794    58.83035239909    R1
Au    16.059999    2.528794    58.83035239909    R1
Au    11.680000    10.115176    58.83035239909    R1
Au    20.440001    10.115176    58.83035239909    R1
Au    2.920000    5.057588    58.83035239909    R1
Au    11.680000    5.057588    58.83035239909    R1
Au    5.840000    5.057588    58.83035239909    R1
Au    14.600000    5.057588    58.83035239909    R1
Au    8.760000    5.057588    58.83035239909    R1
Au    17.520000    5.057588    58.83035239909    R1
Au    1.460000    0.842931    61.21452239909001    R1
Au    10.220000    0.842931    61.21452239909001    R1
Au    5.840000    8.429314    61.21452239909001    R1
Au    14.600000    8.429314    61.21452239909001    R1
Au    4.380000    0.842931    61.21452239909001    R1
Au    13.140000    0.842931    61.21452239909001    R1
Au    8.760000    8.429314    61.21452239909001    R1
Au    17.520000    8.429314    61.21452239909001    R1
Au    7.300000    0.842931    61.21452239909001    R1
Au    16.059999    0.842931    61.21452239909001    R1
Au    11.680000    8.429314    61.21452239909001    R1
Au    20.440001    8.429314    61.21452239909001    R1
Au    2.920000    3.371726    61.21452239909001    R1
Au    11.680000    3.371726    61.21452239909001    R1
Au    7.300000    10.958108    61.21452239909001    R1
Au    16.059999    10.958108    61.21452239909001    R1
Au    5.840000    3.371726    61.21452239909001    R1
Au    14.600000    3.371726    61.21452239909001    R1
Au    10.220000    10.958108    61.21452239909001    R1
Au    18.980000    10.958108    61.21452239909001    R1
Au    8.760000    3.371726    61.21452239909001    R1
Au    17.520000    3.371726    61.21452239909001    R1
Au    13.140000    10.958108    61.21452239909001    R1
Au    21.900000    10.958108    61.21452239909001    R1
Au    4.380000    5.900520    61.21452239909001    R1
Au    13.140000    5.900520    61.21452239909001    R1
Au    7.300000    5.900520    61.21452239909001    R1
Au    16.059999    5.900520    61.21452239909001    R1
Au    10.220000    5.900520    61.21452239909001    R1
Au    18.980000    5.900520    61.21452239909001    R1
Au    0.000000    1.685863    63.598692399090005    R1
Au    8.760000    1.685863    63.598692399090005    R1
Au    4.380000    9.272245    63.598692399090005    R1
Au    13.140000    9.272245    63.598692399090005    R1
Au    2.920000    1.685863    63.598692399090005    R1
Au    11.680000    1.685863    63.598692399090005    R1
Au    7.300000    9.272245    63.598692399090005    R1
Au    16.059999    9.272245    63.598692399090005    R1
Au    5.840000    1.685863    63.598692399090005    R1
Au    14.600000    1.685863    63.598692399090005    R1
Au    10.220000    9.272245    63.598692399090005    R1
Au    18.980000    9.272245    63.598692399090005    R1
Au    1.460000    4.214657    63.598692399090005    R1
Au    10.220000    4.214657    63.598692399090005    R1
Au    5.840000    11.801040    63.598692399090005    R1
Au    14.600000    11.801040    63.598692399090005    R1
Au    4.380000    4.214657    63.598692399090005    R1
Au    13.140000    4.214657    63.598692399090005    R1
Au    8.760000    11.801040    63.598692399090005    R1
Au    17.520000    11.801040    63.598692399090005    R1
Au    7.300000    4.214657    63.598692399090005    R1
Au    16.059999    4.214657    63.598692399090005    R1
Au    11.680000    11.801040    63.598692399090005    R1
Au    20.440001    11.801040    63.598692399090005    R1
Au    2.920000    6.743451    63.598692399090005    R1
Au    11.680000    6.743451    63.598692399090005    R1
Au    5.840000    6.743451    63.598692399090005    R1
Au    14.600000    6.743451    63.598692399090005    R1
Au    8.760000    6.743451    63.598692399090005    R1
Au    17.520000    6.743451    63.598692399090005    R1
Au    0.000000    0.000000    65.98286139909001    R2
Au    8.760000    0.000000    65.98286139909001    R2
Au    4.380000    7.586382    65.98286139909001    R2
Au    13.140000    7.586382    65.98286139909001    R2
Au    2.920000    0.000000    65.98286139909001    R2
Au    11.680000    0.000000    65.98286139909001    R2
Au    7.300000    7.586382    65.98286139909001    R2
Au    16.059999    7.586382    65.98286139909001    R2
Au    5.840000    0.000000    65.98286139909001    R2
Au    14.600000    0.000000    65.98286139909001    R2
Au    10.220000    7.586382    65.98286139909001    R2
Au    18.980000    7.586382    65.98286139909001    R2
Au    1.460000    2.528794    65.98286139909001    R2
Au    10.220000    2.528794    65.98286139909001    R2
Au    5.840000    10.115176    65.98286139909001    R2
Au    14.600000    10.115176    65.98286139909001    R2
Au    4.380000    2.528794    65.98286139909001    R2
Au    13.140000    2.528794    65.98286139909001    R2
Au    8.760000    10.115176    65.98286139909001    R2
Au    17.520000    10.115176    65.98286139909001    R2
Au    7.300000    2.528794    65.98286139909001    R2
Au    16.059999    2.528794    65.98286139909001    R2
Au    11.680000    10.115176    65.98286139909001    R2
Au    20.440001    10.115176    65.98286139909001    R2
Au    2.920000    5.057588    65.98286139909001    R2
Au    11.680000    5.057588    65.98286139909001    R2
Au    5.840000    5.057588    65.98286139909001    R2
Au    14.600000    5.057588    65.98286139909001    R2
Au    8.760000    5.057588    65.98286139909001    R2
Au    17.520000    5.057588    65.98286139909001    R2
Au    1.460000    0.842931    68.36703239909    R2
Au    10.220000    0.842931    68.36703239909    R2
Au    5.840000    8.429314    68.36703239909    R2
Au    14.600000    8.429314    68.36703239909    R2
Au    4.380000    0.842931    68.36703239909    R2
Au    13.140000    0.842931    68.36703239909    R2
Au    8.760000    8.429314    68.36703239909    R2
Au    17.520000    8.429314    68.36703239909    R2
Au    7.300000    0.842931    68.36703239909    R2
Au    16.059999    0.842931    68.36703239909    R2
Au    11.680000    8.429314    68.36703239909    R2
Au    20.440001    8.429314    68.36703239909    R2
Au    2.920000    3.371726    68.36703239909    R2
Au    11.680000    3.371726    68.36703239909    R2
Au    7.300000    10.958108    68.36703239909    R2
Au    16.059999    10.958108    68.36703239909    R2
Au    5.840000    3.371726    68.36703239909    R2
Au    14.600000    3.371726    68.36703239909    R2
Au    10.220000    10.958108    68.36703239909    R2
Au    18.980000    10.958108    68.36703239909    R2
Au    8.760000    3.371726    68.36703239909    R2
Au    17.520000    3.371726    68.36703239909    R2
Au    13.140000    10.958108    68.36703239909    R2
Au    21.900000    10.958108    68.36703239909    R2
Au    4.380000    5.900520    68.36703239909    R2
Au    13.140000    5.900520    68.36703239909    R2
Au    7.300000    5.900520    68.36703239909    R2
Au    16.059999    5.900520    68.36703239909    R2
Au    10.220000    5.900520    68.36703239909    R2
Au    18.980000    5.900520    68.36703239909    R2
Au    0.000000    1.685863    70.75120239909    R2
Au    8.760000    1.685863    70.75120239909    R2
Au    4.380000    9.272245    70.75120239909    R2
Au    13.140000    9.272245    70.75120239909    R2
Au    2.920000    1.685863    70.75120239909    R2
Au    11.680000    1.685863    70.75120239909    R2
Au    7.300000    9.272245    70.75120239909    R2
Au    16.059999    9.272245    70.75120239909    R2
Au    5.840000    1.685863    70.75120239909    R2
Au    14.600000    1.685863    70.75120239909    R2
Au    10.220000    9.272245    70.75120239909    R2
Au    18.980000    9.272245    70.75120239909    R2
Au    1.460000    4.214657    70.75120239909    R2
Au    10.220000    4.214657    70.75120239909    R2
Au    5.840000    11.801040    70.75120239909    R2
Au    14.600000    11.801040    70.75120239909    R2
Au    4.380000    4.214657    70.75120239909    R2
Au    13.140000    4.214657    70.75120239909    R2
Au    8.760000    11.801040    70.75120239909    R2
Au    17.520000    11.801040    70.75120239909    R2
Au    7.300000    4.214657    70.75120239909    R2
Au    16.059999    4.214657    70.75120239909    R2
Au    11.680000    11.801040    70.75120239909    R2
Au    20.440001    11.801040    70.75120239909    R2
Au    2.920000    6.743451    70.75120239909    R2
Au    11.680000    6.743451    70.75120239909    R2
Au    5.840000    6.743451    70.75120239909    R2
Au    14.600000    6.743451    70.75120239909    R2
Au    8.760000    6.743451    70.75120239909    R2
Au    17.520000    6.743451    70.75120239909    R2
Au    0.000000    0.000000    73.13537139908999    R3
Au    8.760000    0.000000    73.13537139908999    R3
Au    4.380000    7.586382    73.13537139908999    R3
Au    13.140000    7.586382    73.13537139908999    R3
Au    2.920000    0.000000    73.13537139908999    R3
Au    11.680000    0.000000    73.13537139908999    R3
Au    7.300000    7.586382    73.13537139908999    R3
Au    16.059999    7.586382    73.13537139908999    R3
Au    5.840000    0.000000    73.13537139908999    R3
Au    14.600000    0.000000    73.13537139908999    R3
Au    10.220000    7.586382    73.13537139908999    R3
Au    18.980000    7.586382    73.13537139908999    R3
Au    1.460000    2.528794    73.13537139908999    R3
Au    10.220000    2.528794    73.13537139908999    R3
Au    5.840000    10.115176    73.13537139908999    R3
Au    14.600000    10.115176    73.13537139908999    R3
Au    4.380000    2.528794    73.13537139908999    R3
Au    13.140000    2.528794    73.13537139908999    R3
Au    8.760000    10.115176    73.13537139908999    R3
Au    17.520000    10.115176    73.13537139908999    R3
Au    7.300000    2.528794    73.13537139908999    R3
Au    16.059999    2.528794    73.13537139908999    R3
Au    11.680000    10.115176    73.13537139908999    R3
Au    20.440001    10.115176    73.13537139908999    R3
Au    2.920000    5.057588    73.13537139908999    R3
Au    11.680000    5.057588    73.13537139908999    R3
Au    5.840000    5.057588    73.13537139908999    R3
Au    14.600000    5.057588    73.13537139908999    R3
Au    8.760000    5.057588    73.13537139908999    R3
Au    17.520000    5.057588    73.13537139908999    R3
Au    1.460000    0.842931    75.51954239909    R3
Au    10.220000    0.842931    75.51954239909    R3
Au    5.840000    8.429314    75.51954239909    R3
Au    14.600000    8.429314    75.51954239909    R3
Au    4.380000    0.842931    75.51954239909    R3
Au    13.140000    0.842931    75.51954239909    R3
Au    8.760000    8.429314    75.51954239909    R3
Au    17.520000    8.429314    75.51954239909    R3
Au    7.300000    0.842931    75.51954239909    R3
Au    16.059999    0.842931    75.51954239909    R3
Au    11.680000    8.429314    75.51954239909    R3
Au    20.440001    8.429314    75.51954239909    R3
Au    2.920000    3.371726    75.51954239909    R3
Au    11.680000    3.371726    75.51954239909    R3
Au    7.300000    10.958108    75.51954239909    R3
Au    16.059999    10.958108    75.51954239909    R3
Au    5.840000    3.371726    75.51954239909    R3
Au    14.600000    3.371726    75.51954239909    R3
Au    10.220000    10.958108    75.51954239909    R3
Au    18.980000    10.958108    75.51954239909    R3
Au    8.760000    3.371726    75.51954239909    R3
Au    17.520000    3.371726    75.51954239909    R3
Au    13.140000    10.958108    75.51954239909    R3
Au    21.900000    10.958108    75.51954239909    R3
Au    4.380000    5.900520    75.51954239909    R3
Au    13.140000    5.900520    75.51954239909    R3
Au    7.300000    5.900520    75.51954239909    R3
Au    16.059999    5.900520    75.51954239909    R3
Au    10.220000    5.900520    75.51954239909    R3
Au    18.980000    5.900520    75.51954239909    R3
Au    0.000000    1.685863    77.90371239909001    R3
Au    8.760000    1.685863    77.90371239909001    R3
Au    4.380000    9.272245    77.90371239909001    R3
Au    13.140000    9.272245    77.90371239909001    R3
Au    2.920000    1.685863    77.90371239909001    R3
Au    11.680000    1.685863    77.90371239909001    R3
Au    7.300000    9.272245    77.90371239909001    R3
Au    16.059999    9.272245    77.90371239909001    R3
Au    5.840000    1.685863    77.90371239909001    R3
Au    14.600000    1.685863    77.90371239909001    R3
Au    10.220000    9.272245    77.90371239909001    R3
Au    18.980000    9.272245    77.90371239909001    R3
Au    1.460000    4.214657    77.90371239909001    R3
Au    10.220000    4.214657    77.90371239909001    R3
Au    5.840000    11.801040    77.90371239909001    R3
Au    14.600000    11.801040    77.90371239909001    R3
Au    4.380000    4.214657    77.90371239909001    R3
Au    13.140000    4.214657    77.90371239909001    R3
Au    8.760000    11.801040    77.90371239909001    R3
Au    17.520000    11.801040    77.90371239909001    R3
Au    7.300000    4.214657    77.90371239909001    R3
Au    16.059999    4.214657    77.90371239909001    R3
Au    11.680000    11.801040    77.90371239909001    R3
Au    20.440001    11.801040    77.90371239909001    R3
Au    2.920000    6.743451    77.90371239909001    R3
Au    11.680000    6.743451    77.90371239909001    R3
Au    5.840000    6.743451    77.90371239909001    R3
Au    14.600000    6.743451    77.90371239909001    R3
Au    8.760000    6.743451    77.90371239909001    R3
Au    17.520000    6.743451    77.90371239909001    R3
