    256
 i =      153, E =     -6420.4060793206
 Au         0.0000000000        0.0000000000        0.0000000000
 Au         8.7600000000        0.0000000000        0.0000000000
 Au         4.3800000000        7.5863820000        0.0000000000
 Au        13.1400000000        7.5863820000        0.0000000000
 Au         2.9200000000        0.0000000000        0.0000000000
 Au        11.6800000000        0.0000000000        0.0000000000
 Au         7.3000000000        7.5863820000        0.0000000000
 Au        16.0599990000        7.5863820000        0.0000000000
 Au         5.8400000000        0.0000000000        0.0000000000
 Au        14.6000000000        0.0000000000        0.0000000000
 Au        10.2200000000        7.5863820000        0.0000000000
 Au        18.9800000000        7.5863820000        0.0000000000
 Au         1.4600000000        2.5287940000        0.0000000000
 Au        10.2200000000        2.5287940000        0.0000000000
 Au         5.8400000000       10.1151760000        0.0000000000
 Au        14.6000000000       10.1151760000        0.0000000000
 Au         4.3800000000        2.5287940000        0.0000000000
 Au        13.1400000000        2.5287940000        0.0000000000
 Au         8.7600000000       10.1151760000        0.0000000000
 Au        17.5200000000       10.1151760000        0.0000000000
 Au         7.3000000000        2.5287940000        0.0000000000
 Au        16.0599990000        2.5287940000        0.0000000000
 Au        11.6800000000       10.1151760000        0.0000000000
 Au        20.4400010000       10.1151760000        0.0000000000
 Au         2.9200000000        5.0575880000        0.0000000000
 Au        11.6800000000        5.0575880000        0.0000000000
 Au         5.8400000000        5.0575880000        0.0000000000
 Au        14.6000000000        5.0575880000        0.0000000000
 Au         8.7600000000        5.0575880000        0.0000000000
 Au        17.5200000000        5.0575880000        0.0000000000
 Au         1.4600000000        0.8429310000        2.3841700000
 Au        10.2200000000        0.8429310000        2.3841700000
 Au         5.8400000000        8.4293140000        2.3841700000
 Au        14.6000000000        8.4293140000        2.3841700000
 Au         4.3800000000        0.8429310000        2.3841700000
 Au        13.1400000000        0.8429310000        2.3841700000
 Au         8.7600000000        8.4293140000        2.3841700000
 Au        17.5200000000        8.4293140000        2.3841700000
 Au         7.3000000000        0.8429310000        2.3841700000
 Au        16.0599990000        0.8429310000        2.3841700000
 Au        11.6800000000        8.4293140000        2.3841700000
 Au        20.4400010000        8.4293140000        2.3841700000
 Au         2.9200000000        3.3717260000        2.3841700000
 Au        11.6800000000        3.3717260000        2.3841700000
 Au         7.3000000000       10.9581080000        2.3841700000
 Au        16.0599990000       10.9581080000        2.3841700000
 Au         5.8400000000        3.3717260000        2.3841700000
 Au        14.6000000000        3.3717260000        2.3841700000
 Au        10.2200000000       10.9581080000        2.3841700000
 Au        18.9800000000       10.9581080000        2.3841700000
 Au         8.7600000000        3.3717260000        2.3841700000
 Au        17.5200000000        3.3717260000        2.3841700000
 Au        13.1400000000       10.9581080000        2.3841700000
 Au        21.9000000000       10.9581080000        2.3841700000
 Au         4.3800000000        5.9005200000        2.3841700000
 Au        13.1400000000        5.9005200000        2.3841700000
 Au         7.3000000000        5.9005200000        2.3841700000
 Au        16.0599990000        5.9005200000        2.3841700000
 Au        10.2200000000        5.9005200000        2.3841700000
 Au        18.9800000000        5.9005200000        2.3841700000
 Au         0.0000000000        1.6858630000        4.7683400000
 Au         8.7600000000        1.6858630000        4.7683400000
 Au         4.3800000000        9.2722450000        4.7683400000
 Au        13.1400000000        9.2722450000        4.7683400000
 Au         2.9200000000        1.6858630000        4.7683400000
 Au        11.6800000000        1.6858630000        4.7683400000
 Au         7.3000000000        9.2722450000        4.7683400000
 Au        16.0599990000        9.2722450000        4.7683400000
 Au         5.8400000000        1.6858630000        4.7683400000
 Au        14.6000000000        1.6858630000        4.7683400000
 Au        10.2200000000        9.2722450000        4.7683400000
 Au        18.9800000000        9.2722450000        4.7683400000
 Au         1.4600000000        4.2146570000        4.7683400000
 Au        10.2200000000        4.2146570000        4.7683400000
 Au         5.8400000000       11.8010400000        4.7683400000
 Au        14.6000000000       11.8010400000        4.7683400000
 Au         4.3800000000        4.2146570000        4.7683400000
 Au        13.1400000000        4.2146570000        4.7683400000
 Au         8.7600000000       11.8010400000        4.7683400000
 Au        17.5200000000       11.8010400000        4.7683400000
 Au         7.3000000000        4.2146570000        4.7683400000
 Au        16.0599990000        4.2146570000        4.7683400000
 Au        11.6800000000       11.8010400000        4.7683400000
 Au        20.4400010000       11.8010400000        4.7683400000
 Au         2.9200000000        6.7434510000        4.7683400000
 Au        11.6800000000        6.7434510000        4.7683400000
 Au         5.8400000000        6.7434510000        4.7683400000
 Au        14.6000000000        6.7434510000        4.7683400000
 Au         8.7600000000        6.7434510000        4.7683400000
 Au        17.5200000000        6.7434510000        4.7683400000
  C         9.2361245436        9.3135158855       18.4710559877
  C         8.6723685945        8.0382097260       18.8764068250
  C         8.2981906413        7.3217526578       17.6703244734
  C         8.6158446242        8.1444837715       16.5308541139
  C         9.1799101967        9.3855272825       17.0246642760
  C        10.2408435800        9.9640746381       16.3207225767
  C        10.6502671014        9.4201602823       15.0555012876
  C         9.8675777835        8.4282465363       14.4622110102
  C         9.0413951486        7.5915936008       15.3102324636
  C         9.2921733431        6.1430510379       15.2186154819
  C         8.9837271180        5.3540047734       16.3538204675
  C         8.4696306896        5.9440537624       17.5792578438
  C         9.0041776529        5.2138759692       18.7167986373
  C         9.3752105483        5.8991255575       19.8799128470
  C         9.2108208876        7.3409825449       19.9594814787
  C        10.3487619354        7.8862107503       20.6793881240
  C        11.2126868763        6.7806642701       21.0532028324
  C        10.6083337021        5.5511516218       20.5628837676
  C        11.4163986016        4.5236736160       20.0656919360
  C        11.0213373378        3.8039686834       18.8680270762
  C         9.8391725853        4.1503662353       18.2035740631
  C         9.8142688680        4.2290992833       16.7519679393
  C        10.9639290994        3.9249850954       16.0301248159
  C        11.3004834297        4.7207424988       14.8763837996
  C        10.4712858343        5.7621202339       14.4213020520
  C        11.1065412256        6.8398438991       13.6872040510
  C        12.4503681805        7.1192371015       13.9482298684
  C        12.9487678869        8.4030567873       14.5010520269
  C        12.1317620981        9.4454845030       15.0045298276
  C        12.5616123282       10.1494745820       16.2172998412
  C        13.7577383793        9.8364668084       16.8713683446
  C        14.5890507853        8.7770082915       16.3596101425
  C        14.1867001529        8.0774369682       15.2168554472
  C        14.3960995746        6.6442957202       15.1735893770
  C        13.2958145573        6.0684834619       14.4417633808
  C        12.7435597167        4.8443724420       14.8321342954
  C        13.2954706450        4.1439657026       15.9748483744
  C        12.1916501060        3.5567074478       16.7126184560
  C        12.2234098600        3.5063088886       18.1074752535
  C        13.3599496960        4.0533349561       18.8278480174
  C        12.8618869223        4.6823831590       20.0374378199
  C        13.4427741352        5.8679840946       20.5009476535
  C        12.6039404529        6.9362064209       21.0177816261
  C        13.1831440891        8.2018855476       20.6026014607
  C        14.3768506681        7.9164573417       19.8246572559
  C        14.5399166831        6.4738433514       19.7674149911
  C        15.0180384943        5.8705169875       18.5996898735
  C        14.4191624677        4.6357265729       18.1198063530
  C        14.3857560011        4.6841241878       16.6695033026
  C        14.9530015904        5.9566380829       16.2549230167
  C        15.3464321819        6.6863566315       17.4447401285
  C        15.1722333159        8.0716795765       17.4911119456
  C        14.6872684750        8.7001000052       18.7067264600
  C        13.8172618646        9.7979450074       18.3250816418
  C        12.6800181191       10.0820607490       19.0850421810
  C        12.3511193822        9.2659458991       20.2399259580
  C        10.9064325087        9.1077585340       20.2797983158
  C        10.3422924551        9.8332262927       19.1561346431
  C        11.4416499024       10.4289468536       18.4151048436
  C        11.3967639575       10.4676345826       17.0189388956
  N        10.2530678717        7.8758954469       13.2134999878
  C        10.0134366391        8.4511391047       10.8138371724
  C        10.6535867923        8.7206401342        9.5938135651
  C         8.7040473869        7.9536229815       10.7866075078
  C         8.0462672213        7.7400954026        9.5791689774
  C        10.0046541970        8.5124784456        8.3768200041
  C         8.6903669551        8.0234810466        8.3584818680
  H        11.6778530221        9.0996326960        9.5898525425
  H        10.5220785806        8.7240229195        7.4381560195
  H         7.0277733841        7.3514777528        9.5741622161
  C        10.7049294606        8.7633762695       12.1291653603
  H        10.4647857021        9.7966854536       12.4253871925
  H        11.7972302067        8.7255775431       12.0000722777
  S         7.7145954151        7.7095873634        6.9061658148
  H         8.1997954408        7.7205748282       11.7243389229
 Au        11.6800000000        6.7434500000       25.3606600000
 Au         0.0000000000        0.0000000000       27.6696922578
 Au         8.7600000000        0.0000000000       27.6696922578
 Au         4.3800000000        7.5863820000       27.6696922578
 Au        13.1400000000        7.5863820000       27.6696922578
 Au         2.9200000000        0.0000000000       27.6696922578
 Au        11.6800000000        0.0000000000       27.6696922578
 Au         7.3000000000        7.5863820000       27.6696922578
 Au        16.0599990000        7.5863820000       27.6696922578
 Au         5.8400000000        0.0000000000       27.6696922578
 Au        14.6000000000        0.0000000000       27.6696922578
 Au        10.2200000000        7.5863820000       27.6696922578
 Au        18.9800000000        7.5863820000       27.6696922578
 Au         1.4600000000        2.5287940000       27.6696922578
 Au        10.2200000000        2.5287940000       27.6696922578
 Au         5.8400000000       10.1151760000       27.6696922578
 Au        14.6000000000       10.1151760000       27.6696922578
 Au         4.3800000000        2.5287940000       27.6696922578
 Au        13.1400000000        2.5287940000       27.6696922578
 Au         8.7600000000       10.1151760000       27.6696922578
 Au        17.5200000000       10.1151760000       27.6696922578
 Au         7.3000000000        2.5287940000       27.6696922578
 Au        16.0599990000        2.5287940000       27.6696922578
 Au        11.6800000000       10.1151760000       27.6696922578
 Au        20.4400010000       10.1151760000       27.6696922578
 Au         2.9200000000        5.0575880000       27.6696922578
 Au        11.6800000000        5.0575880000       27.6696922578
 Au         5.8400000000        5.0575880000       27.6696922578
 Au        14.6000000000        5.0575880000       27.6696922578
 Au         8.7600000000        5.0575880000       27.6696922578
 Au        17.5200000000        5.0575880000       27.6696922578
 Au         1.4600000000        0.8429310000       30.0538622578
 Au        10.2200000000        0.8429310000       30.0538622578
 Au         5.8400000000        8.4293140000       30.0538622578
 Au        14.6000000000        8.4293140000       30.0538622578
 Au         4.3800000000        0.8429310000       30.0538622578
 Au        13.1400000000        0.8429310000       30.0538622578
 Au         8.7600000000        8.4293140000       30.0538622578
 Au        17.5200000000        8.4293140000       30.0538622578
 Au         7.3000000000        0.8429310000       30.0538622578
 Au        16.0599990000        0.8429310000       30.0538622578
 Au        11.6800000000        8.4293140000       30.0538622578
 Au        20.4400010000        8.4293140000       30.0538622578
 Au         2.9200000000        3.3717260000       30.0538622578
 Au        11.6800000000        3.3717260000       30.0538622578
 Au         7.3000000000       10.9581080000       30.0538622578
 Au        16.0599990000       10.9581080000       30.0538622578
 Au         5.8400000000        3.3717260000       30.0538622578
 Au        14.6000000000        3.3717260000       30.0538622578
 Au        10.2200000000       10.9581080000       30.0538622578
 Au        18.9800000000       10.9581080000       30.0538622578
 Au         8.7600000000        3.3717260000       30.0538622578
 Au        17.5200000000        3.3717260000       30.0538622578
 Au        13.1400000000       10.9581080000       30.0538622578
 Au        21.9000000000       10.9581080000       30.0538622578
 Au         4.3800000000        5.9005200000       30.0538622578
 Au        13.1400000000        5.9005200000       30.0538622578
 Au         7.3000000000        5.9005200000       30.0538622578
 Au        16.0599990000        5.9005200000       30.0538622578
 Au        10.2200000000        5.9005200000       30.0538622578
 Au        18.9800000000        5.9005200000       30.0538622578
 Au         0.0000000000        1.6858630000       32.4380322578
 Au         8.7600000000        1.6858630000       32.4380322578
 Au         4.3800000000        9.2722450000       32.4380322578
 Au        13.1400000000        9.2722450000       32.4380322578
 Au         2.9200000000        1.6858630000       32.4380322578
 Au        11.6800000000        1.6858630000       32.4380322578
 Au         7.3000000000        9.2722450000       32.4380322578
 Au        16.0599990000        9.2722450000       32.4380322578
 Au         5.8400000000        1.6858630000       32.4380322578
 Au        14.6000000000        1.6858630000       32.4380322578
 Au        10.2200000000        9.2722450000       32.4380322578
 Au        18.9800000000        9.2722450000       32.4380322578
 Au         1.4600000000        4.2146570000       32.4380322578
 Au        10.2200000000        4.2146570000       32.4380322578
 Au         5.8400000000       11.8010400000       32.4380322578
 Au        14.6000000000       11.8010400000       32.4380322578
 Au         4.3800000000        4.2146570000       32.4380322578
 Au        13.1400000000        4.2146570000       32.4380322578
 Au         8.7600000000       11.8010400000       32.4380322578
 Au        17.5200000000       11.8010400000       32.4380322578
 Au         7.3000000000        4.2146570000       32.4380322578
 Au        16.0599990000        4.2146570000       32.4380322578
 Au        11.6800000000       11.8010400000       32.4380322578
 Au        20.4400010000       11.8010400000       32.4380322578
 Au         2.9200000000        6.7434510000       32.4380322578
 Au        11.6800000000        6.7434510000       32.4380322578
 Au         5.8400000000        6.7434510000       32.4380322578
 Au        14.6000000000        6.7434510000       32.4380322578
 Au         8.7600000000        6.7434510000       32.4380322578
 Au        17.5200000000        6.7434510000       32.4380322578
Au    0.000000    0.000000    55.8220022578    R1
Au    8.760000    0.000000    55.8220022578    R1
Au    4.380000    7.586382    55.8220022578    R1
Au    13.140000    7.586382    55.8220022578    R1
Au    2.920000    0.000000    55.8220022578    R1
Au    11.680000    0.000000    55.8220022578    R1
Au    7.300000    7.586382    55.8220022578    R1
Au    16.059999    7.586382    55.8220022578    R1
Au    5.840000    0.000000    55.8220022578    R1
Au    14.600000    0.000000    55.8220022578    R1
Au    10.220000    7.586382    55.8220022578    R1
Au    18.980000    7.586382    55.8220022578    R1
Au    1.460000    2.528794    55.8220022578    R1
Au    10.220000    2.528794    55.8220022578    R1
Au    5.840000    10.115176    55.8220022578    R1
Au    14.600000    10.115176    55.8220022578    R1
Au    4.380000    2.528794    55.8220022578    R1
Au    13.140000    2.528794    55.8220022578    R1
Au    8.760000    10.115176    55.8220022578    R1
Au    17.520000    10.115176    55.8220022578    R1
Au    7.300000    2.528794    55.8220022578    R1
Au    16.059999    2.528794    55.8220022578    R1
Au    11.680000    10.115176    55.8220022578    R1
Au    20.440001    10.115176    55.8220022578    R1
Au    2.920000    5.057588    55.8220022578    R1
Au    11.680000    5.057588    55.8220022578    R1
Au    5.840000    5.057588    55.8220022578    R1
Au    14.600000    5.057588    55.8220022578    R1
Au    8.760000    5.057588    55.8220022578    R1
Au    17.520000    5.057588    55.8220022578    R1
Au    1.460000    0.842931    58.206172257800006    R1
Au    10.220000    0.842931    58.206172257800006    R1
Au    5.840000    8.429314    58.206172257800006    R1
Au    14.600000    8.429314    58.206172257800006    R1
Au    4.380000    0.842931    58.206172257800006    R1
Au    13.140000    0.842931    58.206172257800006    R1
Au    8.760000    8.429314    58.206172257800006    R1
Au    17.520000    8.429314    58.206172257800006    R1
Au    7.300000    0.842931    58.206172257800006    R1
Au    16.059999    0.842931    58.206172257800006    R1
Au    11.680000    8.429314    58.206172257800006    R1
Au    20.440001    8.429314    58.206172257800006    R1
Au    2.920000    3.371726    58.206172257800006    R1
Au    11.680000    3.371726    58.206172257800006    R1
Au    7.300000    10.958108    58.206172257800006    R1
Au    16.059999    10.958108    58.206172257800006    R1
Au    5.840000    3.371726    58.206172257800006    R1
Au    14.600000    3.371726    58.206172257800006    R1
Au    10.220000    10.958108    58.206172257800006    R1
Au    18.980000    10.958108    58.206172257800006    R1
Au    8.760000    3.371726    58.206172257800006    R1
Au    17.520000    3.371726    58.206172257800006    R1
Au    13.140000    10.958108    58.206172257800006    R1
Au    21.900000    10.958108    58.206172257800006    R1
Au    4.380000    5.900520    58.206172257800006    R1
Au    13.140000    5.900520    58.206172257800006    R1
Au    7.300000    5.900520    58.206172257800006    R1
Au    16.059999    5.900520    58.206172257800006    R1
Au    10.220000    5.900520    58.206172257800006    R1
Au    18.980000    5.900520    58.206172257800006    R1
Au    0.000000    1.685863    60.5903422578    R1
Au    8.760000    1.685863    60.5903422578    R1
Au    4.380000    9.272245    60.5903422578    R1
Au    13.140000    9.272245    60.5903422578    R1
Au    2.920000    1.685863    60.5903422578    R1
Au    11.680000    1.685863    60.5903422578    R1
Au    7.300000    9.272245    60.5903422578    R1
Au    16.059999    9.272245    60.5903422578    R1
Au    5.840000    1.685863    60.5903422578    R1
Au    14.600000    1.685863    60.5903422578    R1
Au    10.220000    9.272245    60.5903422578    R1
Au    18.980000    9.272245    60.5903422578    R1
Au    1.460000    4.214657    60.5903422578    R1
Au    10.220000    4.214657    60.5903422578    R1
Au    5.840000    11.801040    60.5903422578    R1
Au    14.600000    11.801040    60.5903422578    R1
Au    4.380000    4.214657    60.5903422578    R1
Au    13.140000    4.214657    60.5903422578    R1
Au    8.760000    11.801040    60.5903422578    R1
Au    17.520000    11.801040    60.5903422578    R1
Au    7.300000    4.214657    60.5903422578    R1
Au    16.059999    4.214657    60.5903422578    R1
Au    11.680000    11.801040    60.5903422578    R1
Au    20.440001    11.801040    60.5903422578    R1
Au    2.920000    6.743451    60.5903422578    R1
Au    11.680000    6.743451    60.5903422578    R1
Au    5.840000    6.743451    60.5903422578    R1
Au    14.600000    6.743451    60.5903422578    R1
Au    8.760000    6.743451    60.5903422578    R1
Au    17.520000    6.743451    60.5903422578    R1
Au    0.000000    0.000000    62.9745112578    R2
Au    8.760000    0.000000    62.9745112578    R2
Au    4.380000    7.586382    62.9745112578    R2
Au    13.140000    7.586382    62.9745112578    R2
Au    2.920000    0.000000    62.9745112578    R2
Au    11.680000    0.000000    62.9745112578    R2
Au    7.300000    7.586382    62.9745112578    R2
Au    16.059999    7.586382    62.9745112578    R2
Au    5.840000    0.000000    62.9745112578    R2
Au    14.600000    0.000000    62.9745112578    R2
Au    10.220000    7.586382    62.9745112578    R2
Au    18.980000    7.586382    62.9745112578    R2
Au    1.460000    2.528794    62.9745112578    R2
Au    10.220000    2.528794    62.9745112578    R2
Au    5.840000    10.115176    62.9745112578    R2
Au    14.600000    10.115176    62.9745112578    R2
Au    4.380000    2.528794    62.9745112578    R2
Au    13.140000    2.528794    62.9745112578    R2
Au    8.760000    10.115176    62.9745112578    R2
Au    17.520000    10.115176    62.9745112578    R2
Au    7.300000    2.528794    62.9745112578    R2
Au    16.059999    2.528794    62.9745112578    R2
Au    11.680000    10.115176    62.9745112578    R2
Au    20.440001    10.115176    62.9745112578    R2
Au    2.920000    5.057588    62.9745112578    R2
Au    11.680000    5.057588    62.9745112578    R2
Au    5.840000    5.057588    62.9745112578    R2
Au    14.600000    5.057588    62.9745112578    R2
Au    8.760000    5.057588    62.9745112578    R2
Au    17.520000    5.057588    62.9745112578    R2
Au    1.460000    0.842931    65.3586822578    R2
Au    10.220000    0.842931    65.3586822578    R2
Au    5.840000    8.429314    65.3586822578    R2
Au    14.600000    8.429314    65.3586822578    R2
Au    4.380000    0.842931    65.3586822578    R2
Au    13.140000    0.842931    65.3586822578    R2
Au    8.760000    8.429314    65.3586822578    R2
Au    17.520000    8.429314    65.3586822578    R2
Au    7.300000    0.842931    65.3586822578    R2
Au    16.059999    0.842931    65.3586822578    R2
Au    11.680000    8.429314    65.3586822578    R2
Au    20.440001    8.429314    65.3586822578    R2
Au    2.920000    3.371726    65.3586822578    R2
Au    11.680000    3.371726    65.3586822578    R2
Au    7.300000    10.958108    65.3586822578    R2
Au    16.059999    10.958108    65.3586822578    R2
Au    5.840000    3.371726    65.3586822578    R2
Au    14.600000    3.371726    65.3586822578    R2
Au    10.220000    10.958108    65.3586822578    R2
Au    18.980000    10.958108    65.3586822578    R2
Au    8.760000    3.371726    65.3586822578    R2
Au    17.520000    3.371726    65.3586822578    R2
Au    13.140000    10.958108    65.3586822578    R2
Au    21.900000    10.958108    65.3586822578    R2
Au    4.380000    5.900520    65.3586822578    R2
Au    13.140000    5.900520    65.3586822578    R2
Au    7.300000    5.900520    65.3586822578    R2
Au    16.059999    5.900520    65.3586822578    R2
Au    10.220000    5.900520    65.3586822578    R2
Au    18.980000    5.900520    65.3586822578    R2
Au    0.000000    1.685863    67.74285225780001    R2
Au    8.760000    1.685863    67.74285225780001    R2
Au    4.380000    9.272245    67.74285225780001    R2
Au    13.140000    9.272245    67.74285225780001    R2
Au    2.920000    1.685863    67.74285225780001    R2
Au    11.680000    1.685863    67.74285225780001    R2
Au    7.300000    9.272245    67.74285225780001    R2
Au    16.059999    9.272245    67.74285225780001    R2
Au    5.840000    1.685863    67.74285225780001    R2
Au    14.600000    1.685863    67.74285225780001    R2
Au    10.220000    9.272245    67.74285225780001    R2
Au    18.980000    9.272245    67.74285225780001    R2
Au    1.460000    4.214657    67.74285225780001    R2
Au    10.220000    4.214657    67.74285225780001    R2
Au    5.840000    11.801040    67.74285225780001    R2
Au    14.600000    11.801040    67.74285225780001    R2
Au    4.380000    4.214657    67.74285225780001    R2
Au    13.140000    4.214657    67.74285225780001    R2
Au    8.760000    11.801040    67.74285225780001    R2
Au    17.520000    11.801040    67.74285225780001    R2
Au    7.300000    4.214657    67.74285225780001    R2
Au    16.059999    4.214657    67.74285225780001    R2
Au    11.680000    11.801040    67.74285225780001    R2
Au    20.440001    11.801040    67.74285225780001    R2
Au    2.920000    6.743451    67.74285225780001    R2
Au    11.680000    6.743451    67.74285225780001    R2
Au    5.840000    6.743451    67.74285225780001    R2
Au    14.600000    6.743451    67.74285225780001    R2
Au    8.760000    6.743451    67.74285225780001    R2
Au    17.520000    6.743451    67.74285225780001    R2
Au    0.000000    0.000000    70.1270212578    R3
Au    8.760000    0.000000    70.1270212578    R3
Au    4.380000    7.586382    70.1270212578    R3
Au    13.140000    7.586382    70.1270212578    R3
Au    2.920000    0.000000    70.1270212578    R3
Au    11.680000    0.000000    70.1270212578    R3
Au    7.300000    7.586382    70.1270212578    R3
Au    16.059999    7.586382    70.1270212578    R3
Au    5.840000    0.000000    70.1270212578    R3
Au    14.600000    0.000000    70.1270212578    R3
Au    10.220000    7.586382    70.1270212578    R3
Au    18.980000    7.586382    70.1270212578    R3
Au    1.460000    2.528794    70.1270212578    R3
Au    10.220000    2.528794    70.1270212578    R3
Au    5.840000    10.115176    70.1270212578    R3
Au    14.600000    10.115176    70.1270212578    R3
Au    4.380000    2.528794    70.1270212578    R3
Au    13.140000    2.528794    70.1270212578    R3
Au    8.760000    10.115176    70.1270212578    R3
Au    17.520000    10.115176    70.1270212578    R3
Au    7.300000    2.528794    70.1270212578    R3
Au    16.059999    2.528794    70.1270212578    R3
Au    11.680000    10.115176    70.1270212578    R3
Au    20.440001    10.115176    70.1270212578    R3
Au    2.920000    5.057588    70.1270212578    R3
Au    11.680000    5.057588    70.1270212578    R3
Au    5.840000    5.057588    70.1270212578    R3
Au    14.600000    5.057588    70.1270212578    R3
Au    8.760000    5.057588    70.1270212578    R3
Au    17.520000    5.057588    70.1270212578    R3
Au    1.460000    0.842931    72.5111922578    R3
Au    10.220000    0.842931    72.5111922578    R3
Au    5.840000    8.429314    72.5111922578    R3
Au    14.600000    8.429314    72.5111922578    R3
Au    4.380000    0.842931    72.5111922578    R3
Au    13.140000    0.842931    72.5111922578    R3
Au    8.760000    8.429314    72.5111922578    R3
Au    17.520000    8.429314    72.5111922578    R3
Au    7.300000    0.842931    72.5111922578    R3
Au    16.059999    0.842931    72.5111922578    R3
Au    11.680000    8.429314    72.5111922578    R3
Au    20.440001    8.429314    72.5111922578    R3
Au    2.920000    3.371726    72.5111922578    R3
Au    11.680000    3.371726    72.5111922578    R3
Au    7.300000    10.958108    72.5111922578    R3
Au    16.059999    10.958108    72.5111922578    R3
Au    5.840000    3.371726    72.5111922578    R3
Au    14.600000    3.371726    72.5111922578    R3
Au    10.220000    10.958108    72.5111922578    R3
Au    18.980000    10.958108    72.5111922578    R3
Au    8.760000    3.371726    72.5111922578    R3
Au    17.520000    3.371726    72.5111922578    R3
Au    13.140000    10.958108    72.5111922578    R3
Au    21.900000    10.958108    72.5111922578    R3
Au    4.380000    5.900520    72.5111922578    R3
Au    13.140000    5.900520    72.5111922578    R3
Au    7.300000    5.900520    72.5111922578    R3
Au    16.059999    5.900520    72.5111922578    R3
Au    10.220000    5.900520    72.5111922578    R3
Au    18.980000    5.900520    72.5111922578    R3
Au    0.000000    1.685863    74.8953622578    R3
Au    8.760000    1.685863    74.8953622578    R3
Au    4.380000    9.272245    74.8953622578    R3
Au    13.140000    9.272245    74.8953622578    R3
Au    2.920000    1.685863    74.8953622578    R3
Au    11.680000    1.685863    74.8953622578    R3
Au    7.300000    9.272245    74.8953622578    R3
Au    16.059999    9.272245    74.8953622578    R3
Au    5.840000    1.685863    74.8953622578    R3
Au    14.600000    1.685863    74.8953622578    R3
Au    10.220000    9.272245    74.8953622578    R3
Au    18.980000    9.272245    74.8953622578    R3
Au    1.460000    4.214657    74.8953622578    R3
Au    10.220000    4.214657    74.8953622578    R3
Au    5.840000    11.801040    74.8953622578    R3
Au    14.600000    11.801040    74.8953622578    R3