    796
 i =       72, E =     -6434.2718402668
Au    0.000000    0.000000    0.000000    L3
Au    8.760000    0.000000    0.000000    L3
Au    4.380000    7.586382    0.000000    L3
Au    13.140000    7.586382    0.000000    L3
Au    2.920000    0.000000    0.000000    L3
Au    11.680000    0.000000    0.000000    L3
Au    7.300000    7.586382    0.000000    L3
Au    16.059999    7.586382    0.000000    L3
Au    5.840000    0.000000    0.000000    L3
Au    14.600000    0.000000    0.000000    L3
Au    10.220000    7.586382    0.000000    L3
Au    18.980000    7.586382    0.000000    L3
Au    1.460000    2.528794    0.000000    L3
Au    10.220000    2.528794    0.000000    L3
Au    5.840000    10.115176    0.000000    L3
Au    14.600000    10.115176    0.000000    L3
Au    4.380000    2.528794    0.000000    L3
Au    13.140000    2.528794    0.000000    L3
Au    8.760000    10.115176    0.000000    L3
Au    17.520000    10.115176    0.000000    L3
Au    7.300000    2.528794    0.000000    L3
Au    16.059999    2.528794    0.000000    L3
Au    11.680000    10.115176    0.000000    L3
Au    20.440001    10.115176    0.000000    L3
Au    2.920000    5.057588    0.000000    L3
Au    11.680000    5.057588    0.000000    L3
Au    5.840000    5.057588    0.000000    L3
Au    14.600000    5.057588    0.000000    L3
Au    8.760000    5.057588    0.000000    L3
Au    17.520000    5.057588    0.000000    L3
Au    1.460000    0.842931    2.384170    L3
Au    10.220000    0.842931    2.384170    L3
Au    5.840000    8.429314    2.384170    L3
Au    14.600000    8.429314    2.384170    L3
Au    4.380000    0.842931    2.384170    L3
Au    13.140000    0.842931    2.384170    L3
Au    8.760000    8.429314    2.384170    L3
Au    17.520000    8.429314    2.384170    L3
Au    7.300000    0.842931    2.384170    L3
Au    16.059999    0.842931    2.384170    L3
Au    11.680000    8.429314    2.384170    L3
Au    20.440001    8.429314    2.384170    L3
Au    2.920000    3.371726    2.384170    L3
Au    11.680000    3.371726    2.384170    L3
Au    7.300000    10.958108    2.384170    L3
Au    16.059999    10.958108    2.384170    L3
Au    5.840000    3.371726    2.384170    L3
Au    14.600000    3.371726    2.384170    L3
Au    10.220000    10.958108    2.384170    L3
Au    18.980000    10.958108    2.384170    L3
Au    8.760000    3.371726    2.384170    L3
Au    17.520000    3.371726    2.384170    L3
Au    13.140000    10.958108    2.384170    L3
Au    21.900000    10.958108    2.384170    L3
Au    4.380000    5.900520    2.384170    L3
Au    13.140000    5.900520    2.384170    L3
Au    7.300000    5.900520    2.384170    L3
Au    16.059999    5.900520    2.384170    L3
Au    10.220000    5.900520    2.384170    L3
Au    18.980000    5.900520    2.384170    L3
Au    0.000000    1.685863    4.768340    L3
Au    8.760000    1.685863    4.768340    L3
Au    4.380000    9.272245    4.768340    L3
Au    13.140000    9.272245    4.768340    L3
Au    2.920000    1.685863    4.768340    L3
Au    11.680000    1.685863    4.768340    L3
Au    7.300000    9.272245    4.768340    L3
Au    16.059999    9.272245    4.768340    L3
Au    5.840000    1.685863    4.768340    L3
Au    14.600000    1.685863    4.768340    L3
Au    10.220000    9.272245    4.768340    L3
Au    18.980000    9.272245    4.768340    L3
Au    1.460000    4.214657    4.768340    L3
Au    10.220000    4.214657    4.768340    L3
Au    5.840000    11.801040    4.768340    L3
Au    14.600000    11.801040    4.768340    L3
Au    4.380000    4.214657    4.768340    L3
Au    13.140000    4.214657    4.768340    L3
Au    8.760000    11.801040    4.768340    L3
Au    17.520000    11.801040    4.768340    L3
Au    7.300000    4.214657    4.768340    L3
Au    16.059999    4.214657    4.768340    L3
Au    11.680000    11.801040    4.768340    L3
Au    20.440001    11.801040    4.768340    L3
Au    2.920000    6.743451    4.768340    L3
Au    11.680000    6.743451    4.768340    L3
Au    5.840000    6.743451    4.768340    L3
Au    14.600000    6.743451    4.768340    L3
Au    8.760000    6.743451    4.768340    L3
Au    17.520000    6.743451    4.768340    L3
Au    0.000000    0.000000    7.152510    L2
Au    8.760000    0.000000    7.152510    L2
Au    4.380000    7.586382    7.152510    L2
Au    13.140000    7.586382    7.152510    L2
Au    2.920000    0.000000    7.152510    L2
Au    11.680000    0.000000    7.152510    L2
Au    7.300000    7.586382    7.152510    L2
Au    16.059999    7.586382    7.152510    L2
Au    5.840000    0.000000    7.152510    L2
Au    14.600000    0.000000    7.152510    L2
Au    10.220000    7.586382    7.152510    L2
Au    18.980000    7.586382    7.152510    L2
Au    1.460000    2.528794    7.152510    L2
Au    10.220000    2.528794    7.152510    L2
Au    5.840000    10.115176    7.152510    L2
Au    14.600000    10.115176    7.152510    L2
Au    4.380000    2.528794    7.152510    L2
Au    13.140000    2.528794    7.152510    L2
Au    8.760000    10.115176    7.152510    L2
Au    17.520000    10.115176    7.152510    L2
Au    7.300000    2.528794    7.152510    L2
Au    16.059999    2.528794    7.152510    L2
Au    11.680000    10.115176    7.152510    L2
Au    20.440001    10.115176    7.152510    L2
Au    2.920000    5.057588    7.152510    L2
Au    11.680000    5.057588    7.152510    L2
Au    5.840000    5.057588    7.152510    L2
Au    14.600000    5.057588    7.152510    L2
Au    8.760000    5.057588    7.152510    L2
Au    17.520000    5.057588    7.152510    L2
Au    1.460000    0.842931    9.536680    L2
Au    10.220000    0.842931    9.536680    L2
Au    5.840000    8.429314    9.536680    L2
Au    14.600000    8.429314    9.536680    L2
Au    4.380000    0.842931    9.536680    L2
Au    13.140000    0.842931    9.536680    L2
Au    8.760000    8.429314    9.536680    L2
Au    17.520000    8.429314    9.536680    L2
Au    7.300000    0.842931    9.536680    L2
Au    16.059999    0.842931    9.536680    L2
Au    11.680000    8.429314    9.536680    L2
Au    20.440001    8.429314    9.536680    L2
Au    2.920000    3.371726    9.536680    L2
Au    11.680000    3.371726    9.536680    L2
Au    7.300000    10.958108    9.536680    L2
Au    16.059999    10.958108    9.536680    L2
Au    5.840000    3.371726    9.536680    L2
Au    14.600000    3.371726    9.536680    L2
Au    10.220000    10.958108    9.536680    L2
Au    18.980000    10.958108    9.536680    L2
Au    8.760000    3.371726    9.536680    L2
Au    17.520000    3.371726    9.536680    L2
Au    13.140000    10.958108    9.536680    L2
Au    21.900000    10.958108    9.536680    L2
Au    4.380000    5.900520    9.536680    L2
Au    13.140000    5.900520    9.536680    L2
Au    7.300000    5.900520    9.536680    L2
Au    16.059999    5.900520    9.536680    L2
Au    10.220000    5.900520    9.536680    L2
Au    18.980000    5.900520    9.536680    L2
Au    0.000000    1.685863    11.920850    L2
Au    8.760000    1.685863    11.920850    L2
Au    4.380000    9.272245    11.920850    L2
Au    13.140000    9.272245    11.920850    L2
Au    2.920000    1.685863    11.920850    L2
Au    11.680000    1.685863    11.920850    L2
Au    7.300000    9.272245    11.920850    L2
Au    16.059999    9.272245    11.920850    L2
Au    5.840000    1.685863    11.920850    L2
Au    14.600000    1.685863    11.920850    L2
Au    10.220000    9.272245    11.920850    L2
Au    18.980000    9.272245    11.920850    L2
Au    1.460000    4.214657    11.920850    L2
Au    10.220000    4.214657    11.920850    L2
Au    5.840000    11.801040    11.920850    L2
Au    14.600000    11.801040    11.920850    L2
Au    4.380000    4.214657    11.920850    L2
Au    13.140000    4.214657    11.920850    L2
Au    8.760000    11.801040    11.920850    L2
Au    17.520000    11.801040    11.920850    L2
Au    7.300000    4.214657    11.920850    L2
Au    16.059999    4.214657    11.920850    L2
Au    11.680000    11.801040    11.920850    L2
Au    20.440001    11.801040    11.920850    L2
Au    2.920000    6.743451    11.920850    L2
Au    11.680000    6.743451    11.920850    L2
Au    5.840000    6.743451    11.920850    L2
Au    14.600000    6.743451    11.920850    L2
Au    8.760000    6.743451    11.920850    L2
Au    17.520000    6.743451    11.920850    L2
Au    0.000000    0.000000    14.305019    L1
Au    8.760000    0.000000    14.305019    L1
Au    4.380000    7.586382    14.305019    L1
Au    13.140000    7.586382    14.305019    L1
Au    2.920000    0.000000    14.305019    L1
Au    11.680000    0.000000    14.305019    L1
Au    7.300000    7.586382    14.305019    L1
Au    16.059999    7.586382    14.305019    L1
Au    5.840000    0.000000    14.305019    L1
Au    14.600000    0.000000    14.305019    L1
Au    10.220000    7.586382    14.305019    L1
Au    18.980000    7.586382    14.305019    L1
Au    1.460000    2.528794    14.305019    L1
Au    10.220000    2.528794    14.305019    L1
Au    5.840000    10.115176    14.305019    L1
Au    14.600000    10.115176    14.305019    L1
Au    4.380000    2.528794    14.305019    L1
Au    13.140000    2.528794    14.305019    L1
Au    8.760000    10.115176    14.305019    L1
Au    17.520000    10.115176    14.305019    L1
Au    7.300000    2.528794    14.305019    L1
Au    16.059999    2.528794    14.305019    L1
Au    11.680000    10.115176    14.305019    L1
Au    20.440001    10.115176    14.305019    L1
Au    2.920000    5.057588    14.305019    L1
Au    11.680000    5.057588    14.305019    L1
Au    5.840000    5.057588    14.305019    L1
Au    14.600000    5.057588    14.305019    L1
Au    8.760000    5.057588    14.305019    L1
Au    17.520000    5.057588    14.305019    L1
Au    1.460000    0.842931    16.689190    L1
Au    10.220000    0.842931    16.689190    L1
Au    5.840000    8.429314    16.689190    L1
Au    14.600000    8.429314    16.689190    L1
Au    4.380000    0.842931    16.689190    L1
Au    13.140000    0.842931    16.689190    L1
Au    8.760000    8.429314    16.689190    L1
Au    17.520000    8.429314    16.689190    L1
Au    7.300000    0.842931    16.689190    L1
Au    16.059999    0.842931    16.689190    L1
Au    11.680000    8.429314    16.689190    L1
Au    20.440001    8.429314    16.689190    L1
Au    2.920000    3.371726    16.689190    L1
Au    11.680000    3.371726    16.689190    L1
Au    7.300000    10.958108    16.689190    L1
Au    16.059999    10.958108    16.689190    L1
Au    5.840000    3.371726    16.689190    L1
Au    14.600000    3.371726    16.689190    L1
Au    10.220000    10.958108    16.689190    L1
Au    18.980000    10.958108    16.689190    L1
Au    8.760000    3.371726    16.689190    L1
Au    17.520000    3.371726    16.689190    L1
Au    13.140000    10.958108    16.689190    L1
Au    21.900000    10.958108    16.689190    L1
Au    4.380000    5.900520    16.689190    L1
Au    13.140000    5.900520    16.689190    L1
Au    7.300000    5.900520    16.689190    L1
Au    16.059999    5.900520    16.689190    L1
Au    10.220000    5.900520    16.689190    L1
Au    18.980000    5.900520    16.689190    L1
Au    0.000000    1.685863    19.073360    L1
Au    8.760000    1.685863    19.073360    L1
Au    4.380000    9.272245    19.073360    L1
Au    13.140000    9.272245    19.073360    L1
Au    2.920000    1.685863    19.073360    L1
Au    11.680000    1.685863    19.073360    L1
Au    7.300000    9.272245    19.073360    L1
Au    16.059999    9.272245    19.073360    L1
Au    5.840000    1.685863    19.073360    L1
Au    14.600000    1.685863    19.073360    L1
Au    10.220000    9.272245    19.073360    L1
Au    18.980000    9.272245    19.073360    L1
Au    1.460000    4.214657    19.073360    L1
Au    10.220000    4.214657    19.073360    L1
Au    5.840000    11.801040    19.073360    L1
Au    14.600000    11.801040    19.073360    L1
Au    4.380000    4.214657    19.073360    L1
Au    13.140000    4.214657    19.073360    L1
Au    8.760000    11.801040    19.073360    L1
Au    17.520000    11.801040    19.073360    L1
Au    7.300000    4.214657    19.073360    L1
Au    16.059999    4.214657    19.073360    L1
Au    11.680000    11.801040    19.073360    L1
Au    20.440001    11.801040    19.073360    L1
Au    2.920000    6.743451    19.073360    L1
Au    11.680000    6.743451    19.073360    L1
Au    5.840000    6.743451    19.073360    L1
Au    14.600000    6.743451    19.073360    L1
Au    8.760000    6.743451    19.073360    L1
Au    17.520000    6.743451    19.073360    L1
Au    0.0000000000    0.0000000000    21.457530000000002    L0
Au    8.7600000000    0.0000000000    21.457530000000002    L0
Au    4.3800000000    7.5863820000    21.457530000000002    L0
Au    13.1400000000    7.5863820000    21.457530000000002    L0
Au    2.9200000000    0.0000000000    21.457530000000002    L0
Au    11.6800000000    0.0000000000    21.457530000000002    L0
Au    7.3000000000    7.5863820000    21.457530000000002    L0
Au    16.0599990000    7.5863820000    21.457530000000002    L0
Au    5.8400000000    0.0000000000    21.457530000000002    L0
Au    14.6000000000    0.0000000000    21.457530000000002    L0
Au    10.2200000000    7.5863820000    21.457530000000002    L0
Au    18.9800000000    7.5863820000    21.457530000000002    L0
Au    1.4600000000    2.5287940000    21.457530000000002    L0
Au    10.2200000000    2.5287940000    21.457530000000002    L0
Au    5.8400000000    10.1151760000    21.457530000000002    L0
Au    14.6000000000    10.1151760000    21.457530000000002    L0
Au    4.3800000000    2.5287940000    21.457530000000002    L0
Au    13.1400000000    2.5287940000    21.457530000000002    L0
Au    8.7600000000    10.1151760000    21.457530000000002    L0
Au    17.5200000000    10.1151760000    21.457530000000002    L0
Au    7.3000000000    2.5287940000    21.457530000000002    L0
Au    16.0599990000    2.5287940000    21.457530000000002    L0
Au    11.6800000000    10.1151760000    21.457530000000002    L0
Au    20.4400010000    10.1151760000    21.457530000000002    L0
Au    2.9200000000    5.0575880000    21.457530000000002    L0
Au    11.6800000000    5.0575880000    21.457530000000002    L0
Au    5.8400000000    5.0575880000    21.457530000000002    L0
Au    14.6000000000    5.0575880000    21.457530000000002    L0
Au    8.7600000000    5.0575880000    21.457530000000002    L0
Au    17.5200000000    5.0575880000    21.457530000000002    L0
Au    1.4600000000    0.8429310000    23.841700000000003    L0
Au    10.2200000000    0.8429310000    23.841700000000003    L0
Au    5.8400000000    8.4293140000    23.841700000000003    L0
Au    14.6000000000    8.4293140000    23.841700000000003    L0
Au    4.3800000000    0.8429310000    23.841700000000003    L0
Au    13.1400000000    0.8429310000    23.841700000000003    L0
Au    8.7600000000    8.4293140000    23.841700000000003    L0
Au    17.5200000000    8.4293140000    23.841700000000003    L0
Au    7.3000000000    0.8429310000    23.841700000000003    L0
Au    16.0599990000    0.8429310000    23.841700000000003    L0
Au    11.6800000000    8.4293140000    23.841700000000003    L0
Au    20.4400010000    8.4293140000    23.841700000000003    L0
Au    2.9200000000    3.3717260000    23.841700000000003    L0
Au    11.6800000000    3.3717260000    23.841700000000003    L0
Au    7.3000000000    10.9581080000    23.841700000000003    L0
Au    16.0599990000    10.9581080000    23.841700000000003    L0
Au    5.8400000000    3.3717260000    23.841700000000003    L0
Au    14.6000000000    3.3717260000    23.841700000000003    L0
Au    10.2200000000    10.9581080000    23.841700000000003    L0
Au    18.9800000000    10.9581080000    23.841700000000003    L0
Au    8.7600000000    3.3717260000    23.841700000000003    L0
Au    17.5200000000    3.3717260000    23.841700000000003    L0
Au    13.1400000000    10.9581080000    23.841700000000003    L0
Au    21.9000000000    10.9581080000    23.841700000000003    L0
Au    4.3800000000    5.9005200000    23.841700000000003    L0
Au    13.1400000000    5.9005200000    23.841700000000003    L0
Au    7.3000000000    5.9005200000    23.841700000000003    L0
Au    16.0599990000    5.9005200000    23.841700000000003    L0
Au    10.2200000000    5.9005200000    23.841700000000003    L0
Au    18.9800000000    5.9005200000    23.841700000000003    L0
Au    0.0000000000    1.6858630000    26.22587    L0
Au    8.7600000000    1.6858630000    26.22587    L0
Au    4.3800000000    9.2722450000    26.22587    L0
Au    13.1400000000    9.2722450000    26.22587    L0
Au    2.9200000000    1.6858630000    26.22587    L0
Au    11.6800000000    1.6858630000    26.22587    L0
Au    7.3000000000    9.2722450000    26.22587    L0
Au    16.0599990000    9.2722450000    26.22587    L0
Au    5.8400000000    1.6858630000    26.22587    L0
Au    14.6000000000    1.6858630000    26.22587    L0
Au    10.2200000000    9.2722450000    26.22587    L0
Au    18.9800000000    9.2722450000    26.22587    L0
Au    1.4600000000    4.2146570000    26.22587    L0
Au    10.2200000000    4.2146570000    26.22587    L0
Au    5.8400000000    11.8010400000    26.22587    L0
Au    14.6000000000    11.8010400000    26.22587    L0
Au    4.3800000000    4.2146570000    26.22587    L0
Au    13.1400000000    4.2146570000    26.22587    L0
Au    8.7600000000    11.8010400000    26.22587    L0
Au    17.5200000000    11.8010400000    26.22587    L0
Au    7.3000000000    4.2146570000    26.22587    L0
Au    16.0599990000    4.2146570000    26.22587    L0
Au    11.6800000000    11.8010400000    26.22587    L0
Au    20.4400010000    11.8010400000    26.22587    L0
Au    2.9200000000    6.7434510000    26.22587    L0
Au    11.6800000000    6.7434510000    26.22587    L0
Au    5.8400000000    6.7434510000    26.22587    L0
Au    14.6000000000    6.7434510000    26.22587    L0
Au    8.7600000000    6.7434510000    26.22587    L0
Au    17.5200000000    6.7434510000    26.22587    L0
C    9.2361245436    9.3135158855    39.928585987700004    S
C    8.6723685945    8.0382097260    40.333936825    S
C    8.2981906413    7.3217526578    39.127854473400006    S
C    8.6158446242    8.1444837715    37.9883841139    S
C    9.1799101967    9.3855272825    38.482194276    S
C    10.2408435800    9.9640746381    37.7782525767    S
C    10.6502671014    9.4201602823    36.5130312876    S
C    9.8675777835    8.4282465363    35.9197410102    S
C    9.0413951486    7.5915936008    36.7677624636    S
C    9.2921733431    6.1430510379    36.6761454819    S
C    8.9837271180    5.3540047734    37.811350467500006    S
C    8.4696306896    5.9440537624    39.0367878438    S
C    9.0041776529    5.2138759692    40.1743286373    S
C    9.3752105483    5.8991255575    41.337442847000005    S
C    9.2108208876    7.3409825449    41.417011478700005    S
C    10.3487619354    7.8862107503    42.136918124000005    S
C    11.2126868763    6.7806642701    42.5107328324    S
C    10.6083337021    5.5511516218    42.020413767600004    S
C    11.4163986016    4.5236736160    41.523221936    S
C    11.0213373378    3.8039686834    40.3255570762    S
C    9.8391725853    4.1503662353    39.6611040631    S
C    9.8142688680    4.2290992833    38.2094979393    S
C    10.9639290994    3.9249850954    37.4876548159    S
C    11.3004834297    4.7207424988    36.3339137996    S
C    10.4712858343    5.7621202339    35.878832052    S
C    11.1065412256    6.8398438991    35.144734051    S
C    12.4503681805    7.1192371015    35.405759868400004    S
C    12.9487678869    8.4030567873    35.958582026900004    S
C    12.1317620981    9.4454845030    36.4620598276    S
C    12.5616123282    10.1494745820    37.6748298412    S
C    13.7577383793    9.8364668084    38.328898344600006    S
C    14.5890507853    8.7770082915    37.8171401425    S
C    14.1867001529    8.0774369682    36.6743854472    S
C    14.3960995746    6.6442957202    36.631119377000005    S
C    13.2958145573    6.0684834619    35.8992933808    S
C    12.7435597167    4.8443724420    36.2896642954    S
C    13.2954706450    4.1439657026    37.4323783744    S
C    12.1916501060    3.5567074478    38.17014845600001    S
C    12.2234098600    3.5063088886    39.565005253500004    S
C    13.3599496960    4.0533349561    40.28537801740001    S
C    12.8618869223    4.6823831590    41.4949678199    S
C    13.4427741352    5.8679840946    41.9584776535    S
C    12.6039404529    6.9362064209    42.4753116261    S
C    13.1831440891    8.2018855476    42.060131460700006    S
C    14.3768506681    7.9164573417    41.2821872559    S
C    14.5399166831    6.4738433514    41.2249449911    S
C    15.0180384943    5.8705169875    40.0572198735    S
C    14.4191624677    4.6357265729    39.57733635300001    S
C    14.3857560011    4.6841241878    38.1270333026    S
C    14.9530015904    5.9566380829    37.7124530167    S
C    15.3464321819    6.6863566315    38.90227012850001    S
C    15.1722333159    8.0716795765    38.9486419456    S
C    14.6872684750    8.7001000052    40.164256460000004    S
C    13.8172618646    9.7979450074    39.7826116418    S
C    12.6800181191    10.0820607490    40.542572181    S
C    12.3511193822    9.2659458991    41.697455958000006    S
C    10.9064325087    9.1077585340    41.7373283158    S
C    10.3422924551    9.8332262927    40.6136646431    S
C    11.4416499024    10.4289468536    39.872634843600004    S
C    11.3967639575    10.4676345826    38.47646889560001    S
N    10.2530678717    7.8758954469    34.671029987800004    S
C    10.0134366391    8.4511391047    32.271367172400005    S
C    10.6535867923    8.7206401342    31.0513435651    S
C    8.7040473869    7.9536229815    32.244137507800005    S
C    8.0462672213    7.7400954026    31.0366989774    S
C    10.0046541970    8.5124784456    29.834350004100003    S
C    8.6903669551    8.0234810466    29.816011868000004    S
H    11.6778530221    9.0996326960    31.047382542500003    S
H    10.5220785806    8.7240229195    28.8956860195    S
H    7.0277733841    7.3514777528    31.0316922161    S
C    10.7049294606    8.7633762695    33.5866953603    S
H    10.4647857021    9.7966854536    33.8829171925    S
H    11.7972302067    8.7255775431    33.457602277700005    S
S    7.7145954151    7.7095873634    28.363695814800003    S
H    8.1997954408    7.7205748282    33.1818689229    S
Au    11.6800000000    6.7434500000    46.81819    R0
Au    0.0000000000    0.0000000000    49.1272222578    R0
Au    8.7600000000    0.0000000000    49.1272222578    R0
Au    4.3800000000    7.5863820000    49.1272222578    R0
Au    13.1400000000    7.5863820000    49.1272222578    R0
Au    2.9200000000    0.0000000000    49.1272222578    R0
Au    11.6800000000    0.0000000000    49.1272222578    R0
Au    7.3000000000    7.5863820000    49.1272222578    R0
Au    16.0599990000    7.5863820000    49.1272222578    R0
Au    5.8400000000    0.0000000000    49.1272222578    R0
Au    14.6000000000    0.0000000000    49.1272222578    R0
Au    10.2200000000    7.5863820000    49.1272222578    R0
Au    18.9800000000    7.5863820000    49.1272222578    R0
Au    1.4600000000    2.5287940000    49.1272222578    R0
Au    10.2200000000    2.5287940000    49.1272222578    R0
Au    5.8400000000    10.1151760000    49.1272222578    R0
Au    14.6000000000    10.1151760000    49.1272222578    R0
Au    4.3800000000    2.5287940000    49.1272222578    R0
Au    13.1400000000    2.5287940000    49.1272222578    R0
Au    8.7600000000    10.1151760000    49.1272222578    R0
Au    17.5200000000    10.1151760000    49.1272222578    R0
Au    7.3000000000    2.5287940000    49.1272222578    R0
Au    16.0599990000    2.5287940000    49.1272222578    R0
Au    11.6800000000    10.1151760000    49.1272222578    R0
Au    20.4400010000    10.1151760000    49.1272222578    R0
Au    2.9200000000    5.0575880000    49.1272222578    R0
Au    11.6800000000    5.0575880000    49.1272222578    R0
Au    5.8400000000    5.0575880000    49.1272222578    R0
Au    14.6000000000    5.0575880000    49.1272222578    R0
Au    8.7600000000    5.0575880000    49.1272222578    R0
Au    17.5200000000    5.0575880000    49.1272222578    R0
Au    1.4600000000    0.8429310000    51.5113922578    R0
Au    10.2200000000    0.8429310000    51.5113922578    R0
Au    5.8400000000    8.4293140000    51.5113922578    R0
Au    14.6000000000    8.4293140000    51.5113922578    R0
Au    4.3800000000    0.8429310000    51.5113922578    R0
Au    13.1400000000    0.8429310000    51.5113922578    R0
Au    8.7600000000    8.4293140000    51.5113922578    R0
Au    17.5200000000    8.4293140000    51.5113922578    R0
Au    7.3000000000    0.8429310000    51.5113922578    R0
Au    16.0599990000    0.8429310000    51.5113922578    R0
Au    11.6800000000    8.4293140000    51.5113922578    R0
Au    20.4400010000    8.4293140000    51.5113922578    R0
Au    2.9200000000    3.3717260000    51.5113922578    R0
Au    11.6800000000    3.3717260000    51.5113922578    R0
Au    7.3000000000    10.9581080000    51.5113922578    R0
Au    16.0599990000    10.9581080000    51.5113922578    R0
Au    5.8400000000    3.3717260000    51.5113922578    R0
Au    14.6000000000    3.3717260000    51.5113922578    R0
Au    10.2200000000    10.9581080000    51.5113922578    R0
Au    18.9800000000    10.9581080000    51.5113922578    R0
Au    8.7600000000    3.3717260000    51.5113922578    R0
Au    17.5200000000    3.3717260000    51.5113922578    R0
Au    13.1400000000    10.9581080000    51.5113922578    R0
Au    21.9000000000    10.9581080000    51.5113922578    R0
Au    4.3800000000    5.9005200000    51.5113922578    R0
Au    13.1400000000    5.9005200000    51.5113922578    R0
Au    7.3000000000    5.9005200000    51.5113922578    R0
Au    16.0599990000    5.9005200000    51.5113922578    R0
Au    10.2200000000    5.9005200000    51.5113922578    R0
Au    18.9800000000    5.9005200000    51.5113922578    R0
Au    0.0000000000    1.6858630000    53.89556225780001    R0
Au    8.7600000000    1.6858630000    53.89556225780001    R0
Au    4.3800000000    9.2722450000    53.89556225780001    R0
Au    13.1400000000    9.2722450000    53.89556225780001    R0
Au    2.9200000000    1.6858630000    53.89556225780001    R0
Au    11.6800000000    1.6858630000    53.89556225780001    R0
Au    7.3000000000    9.2722450000    53.89556225780001    R0
Au    16.0599990000    9.2722450000    53.89556225780001    R0
Au    5.8400000000    1.6858630000    53.89556225780001    R0
Au    14.6000000000    1.6858630000    53.89556225780001    R0
Au    10.2200000000    9.2722450000    53.89556225780001    R0
Au    18.9800000000    9.2722450000    53.89556225780001    R0
Au    1.4600000000    4.2146570000    53.89556225780001    R0
Au    10.2200000000    4.2146570000    53.89556225780001    R0
Au    5.8400000000    11.8010400000    53.89556225780001    R0
Au    14.6000000000    11.8010400000    53.89556225780001    R0
Au    4.3800000000    4.2146570000    53.89556225780001    R0
Au    13.1400000000    4.2146570000    53.89556225780001    R0
Au    8.7600000000    11.8010400000    53.89556225780001    R0
Au    17.5200000000    11.8010400000    53.89556225780001    R0
Au    7.3000000000    4.2146570000    53.89556225780001    R0
Au    16.0599990000    4.2146570000    53.89556225780001    R0
Au    11.6800000000    11.8010400000    53.89556225780001    R0
Au    20.4400010000    11.8010400000    53.89556225780001    R0
Au    2.9200000000    6.7434510000    53.89556225780001    R0
Au    11.6800000000    6.7434510000    53.89556225780001    R0
Au    5.8400000000    6.7434510000    53.89556225780001    R0
Au    14.6000000000    6.7434510000    53.89556225780001    R0
Au    8.7600000000    6.7434510000    53.89556225780001    R0
Au    17.5200000000    6.7434510000    53.89556225780001    R0
Au    0.000000    0.000000    56.279732257800006    R1
Au    8.760000    0.000000    56.279732257800006    R1
Au    4.380000    7.586382    56.279732257800006    R1
Au    13.140000    7.586382    56.279732257800006    R1
Au    2.920000    0.000000    56.279732257800006    R1
Au    11.680000    0.000000    56.279732257800006    R1
Au    7.300000    7.586382    56.279732257800006    R1
Au    16.059999    7.586382    56.279732257800006    R1
Au    5.840000    0.000000    56.279732257800006    R1
Au    14.600000    0.000000    56.279732257800006    R1
Au    10.220000    7.586382    56.279732257800006    R1
Au    18.980000    7.586382    56.279732257800006    R1
Au    1.460000    2.528794    56.279732257800006    R1
Au    10.220000    2.528794    56.279732257800006    R1
Au    5.840000    10.115176    56.279732257800006    R1
Au    14.600000    10.115176    56.279732257800006    R1
Au    4.380000    2.528794    56.279732257800006    R1
Au    13.140000    2.528794    56.279732257800006    R1
Au    8.760000    10.115176    56.279732257800006    R1
Au    17.520000    10.115176    56.279732257800006    R1
Au    7.300000    2.528794    56.279732257800006    R1
Au    16.059999    2.528794    56.279732257800006    R1
Au    11.680000    10.115176    56.279732257800006    R1
Au    20.440001    10.115176    56.279732257800006    R1
Au    2.920000    5.057588    56.279732257800006    R1
Au    11.680000    5.057588    56.279732257800006    R1
Au    5.840000    5.057588    56.279732257800006    R1
Au    14.600000    5.057588    56.279732257800006    R1
Au    8.760000    5.057588    56.279732257800006    R1
Au    17.520000    5.057588    56.279732257800006    R1
Au    1.460000    0.842931    58.66390225780001    R1
Au    10.220000    0.842931    58.66390225780001    R1
Au    5.840000    8.429314    58.66390225780001    R1
Au    14.600000    8.429314    58.66390225780001    R1
Au    4.380000    0.842931    58.66390225780001    R1
Au    13.140000    0.842931    58.66390225780001    R1
Au    8.760000    8.429314    58.66390225780001    R1
Au    17.520000    8.429314    58.66390225780001    R1
Au    7.300000    0.842931    58.66390225780001    R1