16
	Energy:      21.7864916
 C    0.847646    0.134544   -0.882953
 C    0.861897    0.134205    0.512903
 C    1.034360   -1.060402    1.209207
 C    1.196705   -2.255656    0.511406
 C    1.184624   -2.257692   -0.884382
 C    1.002814   -1.063279   -1.596779
 C    1.002814   -1.063279   -3.102691
 H    0.715291    1.076738   -1.410239
 H    0.740472    1.066934    1.057715
 H    1.046323   -1.059766    2.295969
 H    1.336930   -3.186865    1.054143
 H    1.322363   -3.197751   -1.414887
 S    2.673010   -0.875603   -3.782661
 H    0.374265   -0.248925   -3.479588
 H    0.568424   -1.995085   -3.481270
 H    2.976008    0.248683   -3.117934
