     864
 i =        2, E =     -4007.4006044276
Au         0.0000000000        0.0000000000        0.0000000000 L3
Au   8.76   0.0000000000   0.0000000000   L3
Au   4.38   7.586382504   0.0000000000   L3
Au   13.14   7.586382504   0.0000000000   L3
 Au         2.9200000000        0.0000000000        0.0000000000 L3
Au   11.68   0.0000000000   0.0000000000   L3
Au   7.3   7.586382504   0.0000000000   L3
Au   16.06   7.586382504   0.0000000000   L3
 Au         5.8400000000        0.0000000000        0.0000000000 L3
Au   14.6   0.0000000000   0.0000000000   L3
Au   10.219999999999999   7.586382504   0.0000000000   L3
Au   18.979999999999997   7.586382504   0.0000000000   L3
 Au         1.4600000000        2.5287941680        0.0000000000 L3
Au   10.219999999999999   2.5287941680   0.0000000000   L3
Au   5.84   10.115176672   0.0000000000   L3
Au   14.6   10.115176672   0.0000000000   L3
 Au         4.3800000000        2.5287941680        0.0000000000 L3
Au   13.14   2.5287941680   0.0000000000   L3
Au   8.76   10.115176672   0.0000000000   L3
Au   17.52   10.115176672   0.0000000000   L3
 Au         7.3000000000        2.5287941680        0.0000000000 L3
Au   16.06   2.5287941680   0.0000000000   L3
Au   11.68   10.115176672   0.0000000000   L3
Au   20.439999999999998   10.115176672   0.0000000000   L3
 Au         2.9200000000        5.0575883360        0.0000000000 L3
Au   11.68   5.0575883360   0.0000000000   L3
Au   7.3   12.643970840000001   0.0000000000   L3
Au   16.06   12.643970840000001   0.0000000000   L3
 Au         5.8400000000        5.0575883360        0.0000000000 L3
Au   14.6   5.0575883360   0.0000000000   L3
Au   10.219999999999999   12.643970840000001   0.0000000000   L3
Au   18.979999999999997   12.643970840000001   0.0000000000   L3
 Au         8.7600000000        5.0575883360        0.0000000000 L3
Au   17.52   5.0575883360   0.0000000000   L3
Au   13.14   12.643970840000001   0.0000000000   L3
Au   21.9   12.643970840000001   0.0000000000   L3
 Au         1.4600000000        0.8429312920        2.3841700720 L3
Au   10.219999999999999   0.8429312920   2.3841700720   L3
Au   5.84   8.429313796   2.3841700720   L3
Au   14.6   8.429313796   2.3841700720   L3
 Au         4.3800000000        0.8429312920        2.3841700720 L3
Au   13.14   0.8429312920   2.3841700720   L3
Au   8.76   8.429313796   2.3841700720   L3
Au   17.52   8.429313796   2.3841700720   L3
 Au         7.3000000000        0.8429312920        2.3841700720 L3
Au   16.06   0.8429312920   2.3841700720   L3
Au   11.68   8.429313796   2.3841700720   L3
Au   20.439999999999998   8.429313796   2.3841700720   L3
 Au         2.9200000000        3.3717254600        2.3841700720 L3
Au   11.68   3.3717254600   2.3841700720   L3
Au   7.3   10.958107964   2.3841700720   L3
Au   16.06   10.958107964   2.3841700720   L3
 Au         5.8400000000        3.3717254600        2.3841700720 L3
Au   14.6   3.3717254600   2.3841700720   L3
Au   10.219999999999999   10.958107964   2.3841700720   L3
Au   18.979999999999997   10.958107964   2.3841700720   L3
 Au         8.7600000000        3.3717254600        2.3841700720 L3
Au   17.52   3.3717254600   2.3841700720   L3
Au   13.14   10.958107964   2.3841700720   L3
Au   21.9   10.958107964   2.3841700720   L3
 Au         4.3800000000        5.9005196280        2.3841700720 L3
Au   13.14   5.9005196280   2.3841700720   L3
Au   8.76   13.486902132   2.3841700720   L3
Au   17.52   13.486902132   2.3841700720   L3
 Au         7.3000000000        5.9005196280        2.3841700720 L3
Au   16.06   5.9005196280   2.3841700720   L3
Au   11.68   13.486902132   2.3841700720   L3
Au   20.439999999999998   13.486902132   2.3841700720   L3
 Au        10.2200000000        5.9005196280        2.3841700720 L3
Au   18.98   5.9005196280   2.3841700720   L3
Au   14.600000000000001   13.486902132   2.3841700720   L3
Au   23.36   13.486902132   2.3841700720   L3
 Au         0.0000000000        1.6858628760        4.7683401440 L3
Au   8.76   1.6858628760   4.7683401440   L3
Au   4.38   9.272245380000001   4.7683401440   L3
Au   13.14   9.272245380000001   4.7683401440   L3
 Au         2.9200000000        1.6858628760        4.7683401440 L3
Au   11.68   1.6858628760   4.7683401440   L3
Au   7.3   9.272245380000001   4.7683401440   L3
Au   16.06   9.272245380000001   4.7683401440   L3
 Au         5.8400000000        1.6858628760        4.7683401440 L3
Au   14.6   1.6858628760   4.7683401440   L3
Au   10.219999999999999   9.272245380000001   4.7683401440   L3
Au   18.979999999999997   9.272245380000001   4.7683401440   L3
 Au         1.4600000000        4.2146570440        4.7683401440 L3
Au   10.219999999999999   4.2146570440   4.7683401440   L3
Au   5.84   11.801039548   4.7683401440   L3
Au   14.6   11.801039548   4.7683401440   L3
 Au         4.3800000000        4.2146570440        4.7683401440 L3
Au   13.14   4.2146570440   4.7683401440   L3
Au   8.76   11.801039548   4.7683401440   L3
Au   17.52   11.801039548   4.7683401440   L3
 Au         7.3000000000        4.2146570440        4.7683401440 L3
Au   16.06   4.2146570440   4.7683401440   L3
Au   11.68   11.801039548   4.7683401440   L3
Au   20.439999999999998   11.801039548   4.7683401440   L3
 Au         2.9200000000        6.7434512120        4.7683401440 L3
Au   11.68   6.7434512120   4.7683401440   L3
Au   7.3   14.329833716   4.7683401440   L3
Au   16.06   14.329833716   4.7683401440   L3
 Au         5.8400000000        6.7434512120        4.7683401440 L3
Au   14.6   6.7434512120   4.7683401440   L3
Au   10.219999999999999   14.329833716   4.7683401440   L3
Au   18.979999999999997   14.329833716   4.7683401440   L3
 Au         8.7600000000        6.7434512120        4.7683401440 L3
Au   17.52   6.7434512120   4.7683401440   L3
Au   13.14   14.329833716   4.7683401440   L3
Au   21.9   14.329833716   4.7683401440   L3
 Au         0.0000000000        0.0000000000        7.1525099240 L2
Au   8.76   0.0000000000   7.1525099240   L2
Au   4.38   7.586382504   7.1525099240   L2
Au   13.14   7.586382504   7.1525099240   L2
 Au         2.9200000000        0.0000000000        7.1525099240 L2
Au   11.68   0.0000000000   7.1525099240   L2
Au   7.3   7.586382504   7.1525099240   L2
Au   16.06   7.586382504   7.1525099240   L2
 Au         5.8400000000        0.0000000000        7.1525099240 L2
Au   14.6   0.0000000000   7.1525099240   L2
Au   10.219999999999999   7.586382504   7.1525099240   L2
Au   18.979999999999997   7.586382504   7.1525099240   L2
 Au         1.4600000000        2.5287941680        7.1525099240 L2
Au   10.219999999999999   2.5287941680   7.1525099240   L2
Au   5.84   10.115176672   7.1525099240   L2
Au   14.6   10.115176672   7.1525099240   L2
 Au         4.3800000000        2.5287941680        7.1525099240 L2
Au   13.14   2.5287941680   7.1525099240   L2
Au   8.76   10.115176672   7.1525099240   L2
Au   17.52   10.115176672   7.1525099240   L2
 Au         7.3000000000        2.5287941680        7.1525099240 L2
Au   16.06   2.5287941680   7.1525099240   L2
Au   11.68   10.115176672   7.1525099240   L2
Au   20.439999999999998   10.115176672   7.1525099240   L2
 Au         2.9200000000        5.0575883360        7.1525099240 L2
Au   11.68   5.0575883360   7.1525099240   L2
Au   7.3   12.643970840000001   7.1525099240   L2
Au   16.06   12.643970840000001   7.1525099240   L2
 Au         5.8400000000        5.0575883360        7.1525099240 L2
Au   14.6   5.0575883360   7.1525099240   L2
Au   10.219999999999999   12.643970840000001   7.1525099240   L2
Au   18.979999999999997   12.643970840000001   7.1525099240   L2
 Au         8.7600000000        5.0575883360        7.1525099240 L2
Au   17.52   5.0575883360   7.1525099240   L2
Au   13.14   12.643970840000001   7.1525099240   L2
Au   21.9   12.643970840000001   7.1525099240   L2
 Au         1.4600000000        0.8429312920        9.5366799960 L2
Au   10.219999999999999   0.8429312920   9.5366799960   L2
Au   5.84   8.429313796   9.5366799960   L2
Au   14.6   8.429313796   9.5366799960   L2
 Au         4.3800000000        0.8429312920        9.5366799960 L2
Au   13.14   0.8429312920   9.5366799960   L2
Au   8.76   8.429313796   9.5366799960   L2
Au   17.52   8.429313796   9.5366799960   L2
 Au         7.3000000000        0.8429312920        9.5366799960 L2
Au   16.06   0.8429312920   9.5366799960   L2
Au   11.68   8.429313796   9.5366799960   L2
Au   20.439999999999998   8.429313796   9.5366799960   L2
 Au         2.9200000000        3.3717254600        9.5366799960 L2
Au   11.68   3.3717254600   9.5366799960   L2
Au   7.3   10.958107964   9.5366799960   L2
Au   16.06   10.958107964   9.5366799960   L2
 Au         5.8400000000        3.3717254600        9.5366799960 L2
Au   14.6   3.3717254600   9.5366799960   L2
Au   10.219999999999999   10.958107964   9.5366799960   L2
Au   18.979999999999997   10.958107964   9.5366799960   L2
 Au         8.7600000000        3.3717254600        9.5366799960 L2
Au   17.52   3.3717254600   9.5366799960   L2
Au   13.14   10.958107964   9.5366799960   L2
Au   21.9   10.958107964   9.5366799960   L2
 Au         4.3800000000        5.9005196280        9.5366799960 L2
Au   13.14   5.9005196280   9.5366799960   L2
Au   8.76   13.486902132   9.5366799960   L2
Au   17.52   13.486902132   9.5366799960   L2
 Au         7.3000000000        5.9005196280        9.5366799960 L2
Au   16.06   5.9005196280   9.5366799960   L2
Au   11.68   13.486902132   9.5366799960   L2
Au   20.439999999999998   13.486902132   9.5366799960   L2
 Au        10.2200000000        5.9005196280        9.5366799960 L2
Au   18.98   5.9005196280   9.5366799960   L2
Au   14.600000000000001   13.486902132   9.5366799960   L2
Au   23.36   13.486902132   9.5366799960   L2
 Au         0.0000000000        1.6858628760       11.9208500680 L2
Au   8.76   1.6858628760   11.9208500680   L2
Au   4.38   9.272245380000001   11.9208500680   L2
Au   13.14   9.272245380000001   11.9208500680   L2
 Au         2.9200000000        1.6858628760       11.9208500680 L2
Au   11.68   1.6858628760   11.9208500680   L2
Au   7.3   9.272245380000001   11.9208500680   L2
Au   16.06   9.272245380000001   11.9208500680   L2
 Au         5.8400000000        1.6858628760       11.9208500680 L2
Au   14.6   1.6858628760   11.9208500680   L2
Au   10.219999999999999   9.272245380000001   11.9208500680   L2
Au   18.979999999999997   9.272245380000001   11.9208500680   L2
 Au         1.4600000000        4.2146570440       11.9208500680 L2
Au   10.219999999999999   4.2146570440   11.9208500680   L2
Au   5.84   11.801039548   11.9208500680   L2
Au   14.6   11.801039548   11.9208500680   L2
 Au         4.3800000000        4.2146570440       11.9208500680 L2
Au   13.14   4.2146570440   11.9208500680   L2
Au   8.76   11.801039548   11.9208500680   L2
Au   17.52   11.801039548   11.9208500680   L2
 Au         7.3000000000        4.2146570440       11.9208500680 L2
Au   16.06   4.2146570440   11.9208500680   L2
Au   11.68   11.801039548   11.9208500680   L2
Au   20.439999999999998   11.801039548   11.9208500680   L2
 Au         2.9200000000        6.7434512120       11.9208500680 L2
Au   11.68   6.7434512120   11.9208500680   L2
Au   7.3   14.329833716   11.9208500680   L2
Au   16.06   14.329833716   11.9208500680   L2
 Au         5.8400000000        6.7434512120       11.9208500680 L2
Au   14.6   6.7434512120   11.9208500680   L2
Au   10.219999999999999   14.329833716   11.9208500680   L2
Au   18.979999999999997   14.329833716   11.9208500680   L2
 Au         8.7600000000        6.7434512120       11.9208500680 L2
Au   17.52   6.7434512120   11.9208500680   L2
Au   13.14   14.329833716   11.9208500680   L2
Au   21.9   14.329833716   11.9208500680   L2
 Au         0.0000000000        0.0000000000       14.3050198480 L1
Au   8.76   0.0000000000   14.3050198480   L1
Au   4.38   7.586382504   14.3050198480   L1
Au   13.14   7.586382504   14.3050198480   L1
 Au         2.9200000000        0.0000000000       14.3050198480 L1
Au   11.68   0.0000000000   14.3050198480   L1
Au   7.3   7.586382504   14.3050198480   L1
Au   16.06   7.586382504   14.3050198480   L1
 Au         5.8400000000        0.0000000000       14.3050198480 L1
Au   14.6   0.0000000000   14.3050198480   L1
Au   10.219999999999999   7.586382504   14.3050198480   L1
Au   18.979999999999997   7.586382504   14.3050198480   L1
 Au         1.4600000000        2.5287941680       14.3050198480 L1
Au   10.219999999999999   2.5287941680   14.3050198480   L1
Au   5.84   10.115176672   14.3050198480   L1
Au   14.6   10.115176672   14.3050198480   L1
 Au         4.3800000000        2.5287941680       14.3050198480 L1
Au   13.14   2.5287941680   14.3050198480   L1
Au   8.76   10.115176672   14.3050198480   L1
Au   17.52   10.115176672   14.3050198480   L1
 Au         7.3000000000        2.5287941680       14.3050198480 L1
Au   16.06   2.5287941680   14.3050198480   L1
Au   11.68   10.115176672   14.3050198480   L1
Au   20.439999999999998   10.115176672   14.3050198480   L1
 Au         2.9200000000        5.0575883360       14.3050198480 L1
Au   11.68   5.0575883360   14.3050198480   L1
Au   7.3   12.643970840000001   14.3050198480   L1
Au   16.06   12.643970840000001   14.3050198480   L1
 Au         5.8400000000        5.0575883360       14.3050198480 L1
Au   14.6   5.0575883360   14.3050198480   L1
Au   10.219999999999999   12.643970840000001   14.3050198480   L1
Au   18.979999999999997   12.643970840000001   14.3050198480   L1
 Au         8.7600000000        5.0575883360       14.3050198480 L1
Au   17.52   5.0575883360   14.3050198480   L1
Au   13.14   12.643970840000001   14.3050198480   L1
Au   21.9   12.643970840000001   14.3050198480   L1
 Au         1.4600000000        0.8429312920       16.6891899200 L1
Au   10.219999999999999   0.8429312920   16.6891899200   L1
Au   5.84   8.429313796   16.6891899200   L1
Au   14.6   8.429313796   16.6891899200   L1
 Au         4.3800000000        0.8429312920       16.6891899200 L1
Au   13.14   0.8429312920   16.6891899200   L1
Au   8.76   8.429313796   16.6891899200   L1
Au   17.52   8.429313796   16.6891899200   L1
 Au         7.3000000000        0.8429312920       16.6891899200 L1
Au   16.06   0.8429312920   16.6891899200   L1
Au   11.68   8.429313796   16.6891899200   L1
Au   20.439999999999998   8.429313796   16.6891899200   L1
 Au         2.9200000000        3.3717254600       16.6891899200 L1
Au   11.68   3.3717254600   16.6891899200   L1
Au   7.3   10.958107964   16.6891899200   L1
Au   16.06   10.958107964   16.6891899200   L1
 Au         5.8400000000        3.3717254600       16.6891899200 L1
Au   14.6   3.3717254600   16.6891899200   L1
Au   10.219999999999999   10.958107964   16.6891899200   L1
Au   18.979999999999997   10.958107964   16.6891899200   L1
 Au         8.7600000000        3.3717254600       16.6891899200 L1
Au   17.52   3.3717254600   16.6891899200   L1
Au   13.14   10.958107964   16.6891899200   L1
Au   21.9   10.958107964   16.6891899200   L1
 Au         4.3800000000        5.9005196280       16.6891899200 L1
Au   13.14   5.9005196280   16.6891899200   L1
Au   8.76   13.486902132   16.6891899200   L1
Au   17.52   13.486902132   16.6891899200   L1
 Au         7.3000000000        5.9005196280       16.6891899200 L1
Au   16.06   5.9005196280   16.6891899200   L1
Au   11.68   13.486902132   16.6891899200   L1
Au   20.439999999999998   13.486902132   16.6891899200   L1
 Au        10.2200000000        5.9005196280       16.6891899200 L1
Au   18.98   5.9005196280   16.6891899200   L1
Au   14.600000000000001   13.486902132   16.6891899200   L1
Au   23.36   13.486902132   16.6891899200   L1
 Au         0.0000000000        1.6858628760       19.0733599920 L1
Au   8.76   1.6858628760   19.0733599920   L1
Au   4.38   9.272245380000001   19.0733599920   L1
Au   13.14   9.272245380000001   19.0733599920   L1
 Au         2.9200000000        1.6858628760       19.0733599920 L1
Au   11.68   1.6858628760   19.0733599920   L1
Au   7.3   9.272245380000001   19.0733599920   L1
Au   16.06   9.272245380000001   19.0733599920   L1
 Au         5.8400000000        1.6858628760       19.0733599920 L1
Au   14.6   1.6858628760   19.0733599920   L1
Au   10.219999999999999   9.272245380000001   19.0733599920   L1
Au   18.979999999999997   9.272245380000001   19.0733599920   L1
 Au         1.4600000000        4.2146570440       19.0733599920 L1
Au   10.219999999999999   4.2146570440   19.0733599920   L1
Au   5.84   11.801039548   19.0733599920   L1
Au   14.6   11.801039548   19.0733599920   L1
 Au         4.3800000000        4.2146570440       19.0733599920 L1
Au   13.14   4.2146570440   19.0733599920   L1
Au   8.76   11.801039548   19.0733599920   L1
Au   17.52   11.801039548   19.0733599920   L1
 Au         7.3000000000        4.2146570440       19.0733599920 L1
Au   16.06   4.2146570440   19.0733599920   L1
Au   11.68   11.801039548   19.0733599920   L1
Au   20.439999999999998   11.801039548   19.0733599920   L1
 Au         2.9200000000        6.7434512120       19.0733599920 L1
Au   11.68   6.7434512120   19.0733599920   L1
Au   7.3   14.329833716   19.0733599920   L1
Au   16.06   14.329833716   19.0733599920   L1
 Au         5.8400000000        6.7434512120       19.0733599920 L1
Au   14.6   6.7434512120   19.0733599920   L1
Au   10.219999999999999   14.329833716   19.0733599920   L1
Au   18.979999999999997   14.329833716   19.0733599920   L1
 Au         8.7600000000        6.7434512120       19.0733599920 L1
Au   17.52   6.7434512120   19.0733599920   L1
Au   13.14   14.329833716   19.0733599920   L1
Au   21.9   14.329833716   19.0733599920   L1
Au    0.0000000000    0.0000000000    21.457530000000002    L0
Au    8.7600000000    0.0000000000    21.457530000000002    L0
Au    4.3800000000    7.5863825040    21.457530000000002    L0
Au    13.1400000000    7.5863825040    21.457530000000002    L0
Au    2.9200000000    0.0000000000    21.457530000000002    L0
Au    11.6800000000    0.0000000000    21.457530000000002    L0
Au    7.3000000000    7.5863825040    21.457530000000002    L0
Au    16.0600000000    7.5863825040    21.457530000000002    L0
Au    5.8400000000    0.0000000000    21.457530000000002    L0
Au    14.6000000000    0.0000000000    21.457530000000002    L0
Au    10.2200000000    7.5863825040    21.457530000000002    L0
Au    18.9800000000    7.5863825040    21.457530000000002    L0
Au    1.4600000000    2.5287941680    21.457530000000002    L0
Au    10.2200000000    2.5287941680    21.457530000000002    L0
Au    5.8400000000    10.1151766720    21.457530000000002    L0
Au    14.6000000000    10.1151766720    21.457530000000002    L0
Au    4.3800000000    2.5287941680    21.457530000000002    L0
Au    13.1400000000    2.5287941680    21.457530000000002    L0
Au    8.7600000000    10.1151766720    21.457530000000002    L0
Au    17.5200000000    10.1151766720    21.457530000000002    L0
Au    7.3000000000    2.5287941680    21.457530000000002    L0
Au    16.0600000000    2.5287941680    21.457530000000002    L0
Au    11.6800000000    10.1151766720    21.457530000000002    L0
Au    20.4400000000    10.1151766720    21.457530000000002    L0
Au    2.9200000000    5.0575883360    21.457530000000002    L0
Au    11.6800000000    5.0575883360    21.457530000000002    L0
Au    7.3000000000    12.6439708400    21.457530000000002    L0
Au    16.0600000000    12.6439708400    21.457530000000002    L0
Au    5.8400000000    5.0575883360    21.457530000000002    L0
Au    14.6000000000    5.0575883360    21.457530000000002    L0
Au    10.2200000000    12.6439708400    21.457530000000002    L0
Au    18.9800000000    12.6439708400    21.457530000000002    L0
Au    8.7600000000    5.0575883360    21.457530000000002    L0
Au    17.5200000000    5.0575883360    21.457530000000002    L0
Au    13.1400000000    12.6439708400    21.457530000000002    L0
Au    21.9000000000    12.6439708400    21.457530000000002    L0
Au    1.4600000000    0.8429312920    23.841700072000002    L0
Au    10.2200000000    0.8429312920    23.841700072000002    L0
Au    5.8400000000    8.4293137960    23.841700072000002    L0
Au    14.6000000000    8.4293137960    23.841700072000002    L0
Au    4.3800000000    0.8429312920    23.841700072000002    L0
Au    13.1400000000    0.8429312920    23.841700072000002    L0
Au    8.7600000000    8.4293137960    23.841700072000002    L0
Au    17.5200000000    8.4293137960    23.841700072000002    L0
Au    7.3000000000    0.8429312920    23.841700072000002    L0
Au    16.0600000000    0.8429312920    23.841700072000002    L0
Au    11.6800000000    8.4293137960    23.841700072000002    L0
Au    20.4400000000    8.4293137960    23.841700072000002    L0
Au    2.9200000000    3.3717254600    23.841700072000002    L0
Au    11.6800000000    3.3717254600    23.841700072000002    L0
Au    7.3000000000    10.9581079640    23.841700072000002    L0
Au    16.0600000000    10.9581079640    23.841700072000002    L0
Au    5.8400000000    3.3717254600    23.841700072000002    L0
Au    14.6000000000    3.3717254600    23.841700072000002    L0
Au    10.2200000000    10.9581079640    23.841700072000002    L0
Au    18.9800000000    10.9581079640    23.841700072000002    L0
Au    8.7600000000    3.3717254600    23.841700072000002    L0
Au    17.5200000000    3.3717254600    23.841700072000002    L0
Au    13.1400000000    10.9581079640    23.841700072000002    L0
Au    21.9000000000    10.9581079640    23.841700072000002    L0
Au    4.3800000000    5.9005196280    23.841700072000002    L0
Au    13.1400000000    5.9005196280    23.841700072000002    L0
Au    8.7600000000    13.4869021320    23.841700072000002    L0
Au    17.5200000000    13.4869021320    23.841700072000002    L0
Au    7.3000000000    5.9005196280    23.841700072000002    L0
Au    16.0600000000    5.9005196280    23.841700072000002    L0
Au    11.6800000000    13.4869021320    23.841700072000002    L0
Au    20.4400000000    13.4869021320    23.841700072000002    L0
Au    10.2200000000    5.9005196280    23.841700072000002    L0
Au    18.9800000000    5.9005196280    23.841700072000002    L0
Au    14.6000000000    13.4869021320    23.841700072000002    L0
Au    23.3600000000    13.4869021320    23.841700072000002    L0
Au    0.0000000000    1.6858628760    26.225870144    L0
Au    8.7600000000    1.6858628760    26.225870144    L0
Au    4.3800000000    9.2722453800    26.225870144    L0
Au    13.1400000000    9.2722453800    26.225870144    L0
Au    2.9200000000    1.6858628760    26.225870144    L0
Au    11.6800000000    1.6858628760    26.225870144    L0
Au    7.3000000000    9.2722453800    26.225870144    L0
Au    16.0600000000    9.2722453800    26.225870144    L0
Au    5.8400000000    1.6858628760    26.225870144    L0
Au    14.6000000000    1.6858628760    26.225870144    L0
Au    10.2200000000    9.2722453800    26.225870144    L0
Au    18.9800000000    9.2722453800    26.225870144    L0
Au    1.4600000000    4.2146570440    26.225870144    L0
Au    10.2200000000    4.2146570440    26.225870144    L0
Au    5.8400000000    11.8010395480    26.225870144    L0
Au    14.6000000000    11.8010395480    26.225870144    L0
Au    4.3800000000    4.2146570440    26.225870144    L0
Au    13.1400000000    4.2146570440    26.225870144    L0
Au    8.7600000000    11.8010395480    26.225870144    L0
Au    17.5200000000    11.8010395480    26.225870144    L0
Au    7.3000000000    4.2146570440    26.225870144    L0
Au    16.0600000000    4.2146570440    26.225870144    L0
Au    11.6800000000    11.8010395480    26.225870144    L0
Au    20.4400000000    11.8010395480    26.225870144    L0
Au    2.9200000000    6.7434512120    26.225870144    L0
Au    11.6800000000    6.7434512120    26.225870144    L0
Au    7.3000000000    14.3298337160    26.225870144    L0
Au    16.0600000000    14.3298337160    26.225870144    L0
Au    5.8400000000    6.7434512120    26.225870144    L0
Au    14.6000000000    6.7434512120    26.225870144    L0
Au    10.2200000000    14.3298337160    26.225870144    L0
Au    18.9800000000    14.3298337160    26.225870144    L0
Au    8.7600000000    6.7434512120    26.225870144    L0
Au    17.5200000000    6.7434512120    26.225870144    L0
Au    13.1400000000    14.3298337160    26.225870144    L0
Au    21.9000000000    14.3298337160    26.225870144    L0
H    11.7545009284    5.5387820348    32.4853145888    S
C    11.3228252092    6.1534174892    31.6933956441    S
C    11.2879204199    7.5468794996    31.8393291302    S
C    10.7366564236    8.3160966973    30.801260280300003    S
H    10.7102404921    9.4029605440    30.893329949700004    S
C    10.1755083533    7.7089567271    29.681440559100004    S
H    9.7095534692    8.3157539398    28.903686221900003    S
C    10.1678148399    6.3072166603    29.570194588600003    S
C    10.7830925596    5.5323485076    30.568409016800004    S
H    10.7971815126    4.4459880189    30.4813540214    S
C    11.7927073730    8.1920669440    33.106954218400006    S
N    10.7935020556    9.1009901002    33.715115759    S
H    12.6794705236    8.8099848221    32.889698404300006    S
H    12.1197381248    7.4030045648    33.807891783500004    S
C    11.1968180551    9.6731178153    34.9843262089    S
C    9.4636587835    8.5677818189    33.9369799574    S
C    8.1990619212    8.5120905140    41.683339772000004    S
C    7.7874411611    7.1969036288    42.1353216453    S
C    8.9740348193    6.4625299338    42.527929234400005    S
C    10.1276596618    7.3241400959    42.3215988616    S
C    9.6472842401    8.5898312740    41.793098596600004    S
C    10.3877367743    9.2626848177    40.816722169200006    S
C    11.6406290024    8.7095763765    40.3363697013    S
C    12.1062349580    7.4920314570    40.8507568675    S
C    11.3300030391    6.7859094216    41.8564191089    S
C    11.4288336952    5.3612434689    41.5779275914    S
C    10.3202758285    4.5326071956    41.7737053465    S
C    9.0691212173    5.0920013613    42.2593152643    S
C    7.9805832853    4.4054103706    41.592531716    S
C    6.8319294678    5.1115624650    41.216279932700004    S
C    6.7327271009    6.5318002990    41.489574181100004    S
C    6.0564385251    7.1610103677    40.371518071    S
C    5.7395576373    6.1253657056    39.400615260600006    S
C    6.2137918381    4.8554366974    39.9247826829    S
C    6.7642785462    3.9058004612    39.0602314322    S
C    7.9576074645    3.1711923133    39.4521333109    S
C    8.5540694566    3.4183249660    40.691973356800005    S
C    10.0006455468    3.4998705703    40.802718498900006    S
C    10.7979634744    3.3402300944    39.66520132630001    S
C    11.9466139855    4.2058016922    39.4582320562    S
C    12.2621353669    5.1944722357    40.400399775400004    S
C    12.6800261997    6.5090579532    39.9523911596    S
C    12.7644903053    6.7846543061    38.5821100814    S
C    12.2795477140    8.0459469276    38.0504995102    S
C    11.7413274280    8.9920467259    38.9167849655    S
C    10.5292691022    9.7123683961    38.511957775    S
C    9.9541761785    9.4824295006    37.271180557200005    S
C    10.6505070255    8.7151354836    36.1442238456    S
C    11.6827147230    7.8049928977    36.7431936248    S
C    11.7448775683    6.4272839946    36.4979208214    S
C    12.4282508650    5.7666396236    37.6159324609    S
C    12.0320012980    4.5037700324    38.0436636362    S
C    10.9328151959    3.8091948291    37.3700327852    S
C    10.1780861432    3.0897089535    38.3751367638    S
C    8.7831499394    2.9992266624    38.26983529100001    S
C    8.1038131039    3.6217944937    37.149776928    S
C    6.8570744561    4.1808813206    37.6361020926    S
C    6.4054168407    5.4077345356    37.1309923091    S
C    5.8403741377    6.3948932753    38.032699254700006    S
C    6.2693941990    7.7091678104    37.5855562937    S
C    7.0961817467    7.5460878437    36.4111102305    S
C    7.1736592690    6.1107215812    36.121059259300004    S
C    8.3765277948    5.5834614296    35.6624678116    S
C    8.8442344177    4.3108522872    36.1813714174    S
C    10.2797721754    4.4093301061    36.2987801138    S
C    10.6704061351    5.7474513652    35.8386762132    S
C    9.5273494315    6.4447434215    35.4306410159    S
C    9.4259868096    7.9396091934    35.4013550957    S
C    8.1920499961    8.3679232837    36.1958402336    S
C    8.5275930495    9.3639024281    37.1715310621    S
C    7.7088721074    9.5556961116    38.309034123900005    S
C    6.5572362412    8.7110135700    38.5186424529    S
C    6.4517532738    8.4310784866    39.9383762352    S
C    7.5439770006    9.1201582961    40.60739991290001    S
C    8.3123733757    9.8178488834    39.5934083539    S
C    9.7069158037    9.8767788024    39.6897935129    S
H    9.1806761938    7.8417115975    33.1678332835    S
H    8.7358464305    9.3936054276    33.9151161351    S
S    9.1958039890    5.4466630025    28.361636356200002    S
H    10.7173463044    10.6553469907    35.1176027267    S
H    12.2835765742    9.8087291045    35.0409748159    S
Au 8.76000   6.74345 45.52793 R0
Au    0.0000000000    0.0000000000    47.912099999999995    R0
Au    8.76    0.0000000000    47.912099999999995    R0
Au    4.38    7.586382504    47.912099999999995    R0
Au    13.14    7.586382504    47.912099999999995    R0
Au    2.9200000000    0.0000000000    47.912099999999995    R0
Au    11.68    0.0000000000    47.912099999999995    R0
Au    7.3    7.586382504    47.912099999999995    R0
Au    16.06    7.586382504    47.912099999999995    R0
Au    5.8400000000    0.0000000000    47.912099999999995    R0
Au    14.6    0.0000000000    47.912099999999995    R0
Au    10.219999999999999    7.586382504    47.912099999999995    R0
Au    18.979999999999997    7.586382504    47.912099999999995    R0
Au    1.4600000000    2.5287941680    47.912099999999995    R0
Au    10.219999999999999    2.5287941680    47.912099999999995    R0
Au    5.84    10.115176672    47.912099999999995    R0
Au    14.6    10.115176672    47.912099999999995    R0