 420
 i =       82, E =     -3365.3998523447
Au     0.000000     0.000000     0.000000     L3
Au     8.760000     0.000000     0.000000     L3
Au     4.380000     7.586382     0.000000     L3
Au     13.140000     7.586382     0.000000     L3
Au     2.920000     0.000000     0.000000     L3
Au     11.680000     0.000000     0.000000     L3
Au     7.300000     7.586382     0.000000     L3
Au     16.059999     7.586382     0.000000     L3
Au     5.840000     0.000000     0.000000     L3
Au     10.220000     7.586382     0.000000     L3
Au     1.460000     2.528794     0.000000     L3
Au     10.220000     2.528794     0.000000     L3
Au     5.840000     10.115176     0.000000     L3
Au     14.600000     10.115176     0.000000     L3
Au     4.380000     2.528794     0.000000     L3
Au     13.140000     2.528794     0.000000     L3
Au     8.760000     10.115176     0.000000     L3
Au     17.520000     10.115176     0.000000     L3
Au     7.300000     2.528794     0.000000     L3
Au     11.680000     10.115176     0.000000     L3
Au     2.920000     5.057588     0.000000     L3
Au     11.680000     5.057588     0.000000     L3
Au     5.840000     5.057588     0.000000     L3
Au     14.600000     5.057588     0.000000     L3
Au     8.760000     5.057588     0.000000     L3
Au     1.460000     0.842931     2.384170     L3
Au     10.220000     0.842931     2.384170     L3
Au     5.840000     8.429314     2.384170     L3
Au     14.600000     8.429314     2.384170     L3
Au     4.380000     0.842931     2.384170     L3
Au     13.140000     0.842931     2.384170     L3
Au     8.760000     8.429314     2.384170     L3
Au     17.520000     8.429314     2.384170     L3
Au     7.300000     0.842931     2.384170     L3
Au     11.680000     8.429314     2.384170     L3
Au     2.920000     3.371726     2.384170     L3
Au     11.680000     3.371726     2.384170     L3
Au     7.300000     10.958108     2.384170     L3
Au     16.059999     10.958108     2.384170     L3
Au     5.840000     3.371726     2.384170     L3
Au     14.600000     3.371726     2.384170     L3
Au     10.220000     10.958108     2.384170     L3
Au     18.980000     10.958108     2.384170     L3
Au     8.760000     3.371726     2.384170     L3
Au     13.140000     10.958108     2.384170     L3
Au     4.380000     5.900520     2.384170     L3
Au     13.140000     5.900520     2.384170     L3
Au     7.300000     5.900520     2.384170     L3
Au     16.059999     5.900520     2.384170     L3
Au     10.220000     5.900520     2.384170     L3
Au     8.760000     1.685863     4.768340     L3
Au     13.140000     9.272245     4.768340     L3
Au     2.920000     1.685863     4.768340     L3
Au     11.680000     1.685863     4.768340     L3
Au     7.300000     9.272245     4.768340     L3
Au     16.059999     9.272245     4.768340     L3
Au     5.840000     1.685863     4.768340     L3
Au     14.600000     1.685863     4.768340     L3
Au     10.220000     9.272245     4.768340     L3
Au     18.980000     9.272245     4.768340     L3
Au     10.220000     4.214657     4.768340     L3
Au     14.600000     11.801040     4.768340     L3
Au     4.380000     4.214657     4.768340     L3
Au     13.140000     4.214657     4.768340     L3
Au     8.760000     11.801040     4.768340     L3
Au     17.520000     11.801040     4.768340     L3
Au     7.300000     4.214657     4.768340     L3
Au     16.059999     4.214657     4.768340     L3
Au     11.680000     11.801040     4.768340     L3
Au     20.440001     11.801040     4.768340     L3
Au     11.680000     6.743451     4.768340     L3
Au     5.840000     6.743451     4.768340     L3
Au     14.600000     6.743451     4.768340     L3
Au     8.760000     6.743451     4.768340     L3
Au     17.520000     6.743451     4.768340     L3
Au     0.000000     0.000000     7.152510     L2
Au     8.760000     0.000000     7.152510     L2
Au     4.380000     7.586382     7.152510     L2
Au     13.140000     7.586382     7.152510     L2
Au     2.920000     0.000000     7.152510     L2
Au     11.680000     0.000000     7.152510     L2
Au     7.300000     7.586382     7.152510     L2
Au     16.059999     7.586382     7.152510     L2
Au     5.840000     0.000000     7.152510     L2
Au     10.220000     7.586382     7.152510     L2
Au     1.460000     2.528794     7.152510     L2
Au     10.220000     2.528794     7.152510     L2
Au     5.840000     10.115176     7.152510     L2
Au     14.600000     10.115176     7.152510     L2
Au     4.380000     2.528794     7.152510     L2
Au     13.140000     2.528794     7.152510     L2
Au     8.760000     10.115176     7.152510     L2
Au     17.520000     10.115176     7.152510     L2
Au     7.300000     2.528794     7.152510     L2
Au     11.680000     10.115176     7.152510     L2
Au     2.920000     5.057588     7.152510     L2
Au     11.680000     5.057588     7.152510     L2
Au     5.840000     5.057588     7.152510     L2
Au     14.600000     5.057588     7.152510     L2
Au     8.760000     5.057588     7.152510     L2
Au     1.460000     0.842931     9.536680     L2
Au     10.220000     0.842931     9.536680     L2
Au     5.840000     8.429314     9.536680     L2
Au     14.600000     8.429314     9.536680     L2
Au     4.380000     0.842931     9.536680     L2
Au     13.140000     0.842931     9.536680     L2
Au     8.760000     8.429314     9.536680     L2
Au     17.520000     8.429314     9.536680     L2
Au     7.300000     0.842931     9.536680     L2
Au     11.680000     8.429314     9.536680     L2
Au     2.920000     3.371726     9.536680     L2
Au     11.680000     3.371726     9.536680     L2
Au     7.300000     10.958108     9.536680     L2
Au     16.059999     10.958108     9.536680     L2
Au     5.840000     3.371726     9.536680     L2
Au     14.600000     3.371726     9.536680     L2
Au     10.220000     10.958108     9.536680     L2
Au     18.980000     10.958108     9.536680     L2
Au     8.760000     3.371726     9.536680     L2
Au     13.140000     10.958108     9.536680     L2
Au     4.380000     5.900520     9.536680     L2
Au     13.140000     5.900520     9.536680     L2
Au     7.300000     5.900520     9.536680     L2
Au     16.059999     5.900520     9.536680     L2
Au     10.220000     5.900520     9.536680     L2
Au     8.760000     1.685863     11.920850     L2
Au     13.140000     9.272245     11.920850     L2
Au     2.920000     1.685863     11.920850     L2
Au     11.680000     1.685863     11.920850     L2
Au     7.300000     9.272245     11.920850     L2
Au     16.059999     9.272245     11.920850     L2
Au     5.840000     1.685863     11.920850     L2
Au     14.600000     1.685863     11.920850     L2
Au     10.220000     9.272245     11.920850     L2
Au     18.980000     9.272245     11.920850     L2
Au     10.220000     4.214657     11.920850     L2
Au     14.600000     11.801040     11.920850     L2
Au     4.380000     4.214657     11.920850     L2
Au     13.140000     4.214657     11.920850     L2
Au     8.760000     11.801040     11.920850     L2
Au     17.520000     11.801040     11.920850     L2
Au     7.300000     4.214657     11.920850     L2
Au     16.059999     4.214657     11.920850     L2
Au     11.680000     11.801040     11.920850     L2
Au     20.440001     11.801040     11.920850     L2
Au     11.680000     6.743451     11.920850     L2
Au     5.840000     6.743451     11.920850     L2
Au     14.600000     6.743451     11.920850     L2
Au     8.760000     6.743451     11.920850     L2
Au     17.520000     6.743451     11.920850     L2
Au     0.000000     0.000000     14.305019     L1
Au     8.760000     0.000000     14.305019     L1
Au     4.380000     7.586382     14.305019     L1
Au     13.140000     7.586382     14.305019     L1
Au     2.920000     0.000000     14.305019     L1
Au     11.680000     0.000000     14.305019     L1
Au     7.300000     7.586382     14.305019     L1
Au     16.059999     7.586382     14.305019     L1
Au     5.840000     0.000000     14.305019     L1
Au     10.220000     7.586382     14.305019     L1
Au     1.460000     2.528794     14.305019     L1
Au     10.220000     2.528794     14.305019     L1
Au     5.840000     10.115176     14.305019     L1
Au     14.600000     10.115176     14.305019     L1
Au     4.380000     2.528794     14.305019     L1
Au     13.140000     2.528794     14.305019     L1
Au     8.760000     10.115176     14.305019     L1
Au     17.520000     10.115176     14.305019     L1
Au     7.300000     2.528794     14.305019     L1
Au     11.680000     10.115176     14.305019     L1
Au     2.920000     5.057588     14.305019     L1
Au     11.680000     5.057588     14.305019     L1
Au     5.840000     5.057588     14.305019     L1
Au     14.600000     5.057588     14.305019     L1
Au     8.760000     5.057588     14.305019     L1
Au     1.460000     0.842931     16.689190     L1
Au     10.220000     0.842931     16.689190     L1
Au     5.840000     8.429314     16.689190     L1
Au     14.600000     8.429314     16.689190     L1
Au     4.380000     0.842931     16.689190     L1
Au     13.140000     0.842931     16.689190     L1
Au     8.760000     8.429314     16.689190     L1
Au     17.520000     8.429314     16.689190     L1
Au     7.300000     0.842931     16.689190     L1
Au     11.680000     8.429314     16.689190     L1
Au     2.920000     3.371726     16.689190     L1
Au     11.680000     3.371726     16.689190     L1
Au     7.300000     10.958108     16.689190     L1
Au     16.059999     10.958108     16.689190     L1
Au     5.840000     3.371726     16.689190     L1
Au     14.600000     3.371726     16.689190     L1
Au     10.220000     10.958108     16.689190     L1
Au     18.980000     10.958108     16.689190     L1
Au     8.760000     3.371726     16.689190     L1
Au     13.140000     10.958108     16.689190     L1
Au     4.380000     5.900520     16.689190     L1
Au     13.140000     5.900520     16.689190     L1
Au     7.300000     5.900520     16.689190     L1
Au     16.059999     5.900520     16.689190     L1
Au     10.220000     5.900520     16.689190     L1
Au     8.760000     1.685863     19.073360     L1
Au     13.140000     9.272245     19.073360     L1
Au     2.920000     1.685863     19.073360     L1
Au     11.680000     1.685863     19.073360     L1
Au     7.300000     9.272245     19.073360     L1
Au     16.059999     9.272245     19.073360     L1
Au     5.840000     1.685863     19.073360     L1
Au     14.600000     1.685863     19.073360     L1
Au     10.220000     9.272245     19.073360     L1
Au     18.980000     9.272245     19.073360     L1
Au     10.220000     4.214657     19.073360     L1
Au     14.600000     11.801040     19.073360     L1
Au     4.380000     4.214657     19.073360     L1
Au     13.140000     4.214657     19.073360     L1
Au     8.760000     11.801040     19.073360     L1
Au     17.520000     11.801040     19.073360     L1
Au     7.300000     4.214657     19.073360     L1
Au     16.059999     4.214657     19.073360     L1
Au     11.680000     11.801040     19.073360     L1
Au     20.440001     11.801040     19.073360     L1
Au     11.680000     6.743451     19.073360     L1
Au     5.840000     6.743451     19.073360     L1
Au     14.600000     6.743451     19.073360     L1
Au     8.760000     6.743451     19.073360     L1
Au     17.520000     6.743451     19.073360     L1
Au    0.0000000000    0.0000000000    21.2829444545    L0
Au    8.7600000000    0.0000000000    21.3165886846    L0
Au    4.3800000000    7.5863820000    21.3211846913    L0
Au    13.1400000000    7.5863820000    21.215335305900002    L0
Au    2.9200000000    0.0000000000    21.2835387052    L0
Au    11.6800000000    0.0000000000    21.3081772415    L0
Au    7.3000000000    7.5863820000    21.4173427455    L0
Au    16.0599990000    7.5863820000    21.2605553945    L0
Au    5.8400000000    0.0000000000    21.2815581862    L0
Au    10.2200000000    7.5863820000    21.2986366059    L0
Au    1.4600000000    2.5287940000    21.2711734265    L0
Au    10.2200000000    2.5287940000    21.360739980600002    L0
Au    5.8400000000    10.1151760000    21.320585959    L0
Au    14.6000000000    10.1151760000    21.2616470927    L0
Au    4.3800000000    2.5287940000    21.2927113187    L0
Au    13.1400000000    2.5287940000    21.3155010085    L0
Au    8.7600000000    10.1151760000    21.3424173494    L0
Au    17.5200000000    10.1151760000    21.290519337    L0
Au    7.3000000000    2.5287940000    21.3643825857    L0
Au    11.6800000000    10.1151760000    21.2578729943    L0
Au    2.9200000000    5.0575880000    21.278627419    L0
Au    11.6800000000    5.0575880000    21.262779021100002    L0
Au    5.8400000000    5.0575880000    21.3631352829    L0
Au    14.6000000000    5.0575880000    21.2457414565    L0
Au    8.7600000000    5.0575880000    21.379179444800002    L0
Au    1.4600000000    0.8429310000    23.9037282727    L0
Au    10.2200000000    0.8429310000    23.9454833925    L0
Au    5.8400000000    8.4293140000    23.9719602749    L0
Au    14.6000000000    8.4293140000    23.8701203211    L0
Au    4.3800000000    0.8429310000    23.9064888113    L0
Au    13.1400000000    0.8429310000    23.9147140362    L0
Au    8.7600000000    8.4293140000    24.0467286074    L0
Au    17.5200000000    8.4293140000    23.9128312817    L0
Au    7.3000000000    0.8429310000    23.9374197486    L0
Au    11.6800000000    8.4293140000    23.8351220641    L0
Au    2.9200000000    3.3717260000    23.9023728209    L0
Au    11.6800000000    3.3717260000    23.976249517    L0
Au    7.3000000000    10.9581080000    23.9326930191    L0
Au    16.0599990000    10.9581080000    23.9137819587    L0
Au    5.8400000000    3.3717260000    23.9482675609    L0
Au    14.6000000000    3.3717260000    23.8914640343    L0
Au    10.2200000000    10.9581080000    23.9137880398    L0
Au    18.9800000000    10.9581080000    23.9299813529    L0
Au    8.7600000000    3.3717260000    24.0223592826    L0
Au    13.1400000000    10.9581080000    23.8897811425    L0
Au    4.3800000000    5.9005200000    23.9390573045    L0
Au    13.1400000000    5.9005200000    23.8182499414    L0
Au    7.3000000000    5.9005200000    24.0559973913    L0
Au    16.0599990000    5.9005200000    23.8839791827    L0
Au    10.2200000000    5.9005200000    23.9156889817    L0
Au    8.7600000000    1.6858630000    26.5795693415    L0
Au    13.1400000000    9.2722450000    26.490138512599998    L0
Au    2.9200000000    1.6858630000    26.5266452722    L0
Au    11.6800000000    1.6858630000    26.5494013223    L0
Au    7.3000000000    9.2722450000    26.5946415285    L0
Au    16.0599990000    9.2722450000    26.5220503095    L0
Au    5.8400000000    1.6858630000    26.5497692493    L0
Au    14.6000000000    1.6858630000    26.5272640658    L0
Au    10.2200000000    9.2722450000    26.5452787551    L0
Au    18.9800000000    9.2722450000    26.5622703193    L0
Au    10.2200000000    4.2146570000    26.6418129215    L0
Au    14.6000000000    11.8010400000    26.5405817492    L0
Au    4.3800000000    4.2146570000    26.5500256685    L0
Au    13.1400000000    4.2146570000    26.488366078    L0
Au    8.7600000000    11.8010400000    26.540792504400002    L0
Au    17.5200000000    11.8010400000    26.558224509600002    L0
Au    7.3000000000    4.2146570000    26.581135353900002    L0
Au    16.0599990000    4.2146570000    26.5152099726    L0
Au    11.6800000000    11.8010400000    26.5222618211    L0
Au    20.4400010000    11.8010400000    26.547067836700002    L0
Au    11.6800000000    6.7434510000    26.2955148384    L0
Au    5.8400000000    6.7434510000    26.598344308999998    L0
Au    14.6000000000    6.7434510000    26.4826410591    L0
Au    8.7600000000    6.7434510000    26.9603130916    L0
Au    17.5200000000    6.7434510000    26.5341128318    L0
C    10.9361688239    4.7761038268    41.0971627753    S
C    11.5356533411    5.5531234119    40.088847783    S
C    11.7415591654    5.0049514553    38.825983348099996    S
C    11.3773128073    3.6801244291    38.5323842598    S
C    10.6423381068    3.4235869198    40.845137494300005    S
C    10.8628664375    2.8915853960    39.5767162638    S
C    8.9510060553    3.6962651700    32.7207330047    S
H    12.1778162484    5.6269107517    38.041689284200004    S
S    10.2667523640    5.6236209114    42.4971930816    S
H    10.2068604202    2.8090460111    41.6335374469    S
H    10.6043649472    1.8474871001    39.388382603400004    S
H    11.7983274740    6.5919502177    40.2887725916    S
C    8.5626258531    5.0056636974    32.3918480351    S
C    8.8031650522    5.5403670060    31.1286236813    S
C    9.4607609654    4.7644695484    30.1572391226    S
C    9.7780204073    3.4234159996    30.441174218    S
C    9.5231715491    2.9051535811    31.7086995009    S
H    8.5247247902    6.5698280820    30.903358340300002    S
H    8.0834168646    5.6287876306    33.149721027300004    S
H    10.2597189439    2.8092164904    29.679976848000003    S
H    9.8022073820    1.8715669898    31.9237859118    S
S    10.1823336481    5.5954990055    28.7725482906    S
C    11.4562765752    3.1686590888    37.115290725899996    S
C    8.8442693251    3.2035494021    34.1431345133    S
C    10.2116867532    3.2331602460    34.869012927200004    S
C    10.0859092969    3.2313874830    36.3957269036    S
H    10.8248024283    2.3815890154    34.530277822900004    S
H    10.7591149257    4.1401214052    34.5628296601    S
H    9.4551882425    2.3919712752    36.7326314665    S
H    9.5602342722    4.1492906002    36.7072467165    S
H    12.1825504527    3.7793182837    36.5551833018    S
H    11.8334357779    2.1338274114    37.0962827406    S
H    8.1327986381    3.8415579744    34.6912460746    S
H    8.4363851261    2.1803525696    34.1712788048    S
Au    8.7600020000    1.6858630000    44.698574953299996    R0
Au    13.1400000000    9.2722460000    44.661995487599995    R0
Au    2.9200000000    1.6858630000    44.722724216399996    R0
Au    11.6800000000    1.6858630000    44.669867324500004    R0
Au    7.3000000000    9.2722460000    44.766666958100004    R0
Au    16.0599990000    9.2722460000    44.689801388199996    R0
Au    5.8400010000    1.6858630000    44.7210125396    R0
Au    14.6000000000    1.6858630000    44.7003328244    R0
Au    10.2200000000    9.2722460000    44.7139632966    R0
Au    18.9800000000    9.2722460000    44.730071651399996    R0
Au    10.2200010000    4.2146570000    44.5958173196    R0
Au    14.6000000000    11.8010400000    44.7016970671    R0
Au    4.3800000000    4.2146570000    44.7362081738    R0
Au    13.1400000000    4.2146570000    44.671033792100005    R0
Au    8.7600000000    11.8010400000    44.7297249163    R0
Au    17.5200000000    11.8010400000    44.6913698323    R0
Au    7.3000000000    4.2146570000    44.760808788700004    R0
Au    16.0599990000    4.2146570000    44.700681048    R0
Au    11.6800000000    11.8010400000    44.7098271997    R0
Au    20.4400010000    11.8010400000    44.7114700792    R0
Au    11.6800000000    6.7434510000    44.3879362467    R0
Au    5.8400000000    6.7434510000    44.773991949    R0
Au    14.6000000000    6.7434510000    44.6554992748    R0
Au    8.7600000000    6.7434510000    44.9616244043    R0
Au    17.5200000000    6.7434510000    44.7171853306    R0
Au    1.4600000000    0.8429310000    47.3441524119    R0
Au    10.2200000000    0.8429310000    47.3033546085    R0
Au    5.8400010000    8.4293140000    47.3852670808    R0
Au    14.6000000000    8.4293140000    47.2830744153    R0
Au    4.3800000000    0.8429310000    47.3458986081    R0
Au    13.1400010000    0.8429310000    47.3135851798    R0
Au    8.7600000000    8.4293140000    47.4238598379    R0
Au    17.5200000000    8.4293140000    47.3379063486    R0
Au    7.3000010000    0.8429310000    47.3331492825    R0
Au    11.6800000000    8.4293140000    47.2168485678    R0
Au    2.9200000000    3.3717260000    47.347277563700004    R0
Au    11.6800010000    3.3717260000    47.227394533    R0
Au    7.3000000000    10.9581090000    47.3635546774    R0
Au    16.0599980000    10.9581090000    47.3208571066    R0
Au    5.8400000000    3.3717260000    47.3581008525    R0
Au    14.6000000000    3.3717260000    47.302702289500004    R0
Au    10.2200000000    10.9581090000    47.3402143016    R0
Au    18.9800000000    10.9581090000    47.336612946100004    R0
Au    8.7600000000    3.3717260000    47.2715053696    R0
Au    13.1399990000    10.9581090000    47.319021454600005    R0
Au    4.3800000000    5.9005200000    47.369017369800005    R0
Au    13.1400000000    5.9005200000    47.2051575501    R0
Au    7.3000000000    5.9005200000    47.436251775900004    R0
Au    16.0599990000    5.9005200000    47.312545046400004    R0
Au    10.2200000000    5.9005200000    47.3440208449    R0
Au    0.0000000000    0.0000000000    49.9702141162    R0
Au    8.7600000000    0.0000000000    49.940514263699995    R0
Au    4.3800000000    7.5863820000    49.9937178323    R0
Au    13.1399990000    7.5863820000    49.8445722125    R0
Au    2.9200000000    0.0000000000    49.967756289899995    R0
Au    11.6800000000    0.0000000000    49.932755326700004    R0
Au    7.3000000000    7.5863820000    50.0417055264    R0
Au    16.0599990000    7.5863820000    49.9310480029    R0
Au    5.8400000000    0.0000000000    49.9666510355    R0
Au    10.2200000000    7.5863820000    49.961772459100004    R0
Au    1.4600000000    2.5287940000    49.9580797127    R0
Au    10.2200000000    2.5287940000    49.887000746    R0
Au    5.8400000000    10.1151760000    49.9921848296    R0
Au    14.6000000000    10.1151760000    49.9312296604    R0
Au    4.3800000000    2.5287940000    49.9785345385    R0
Au    13.1400000000    2.5287940000    49.886532262399996    R0
Au    8.7600000000    10.1151760000    49.9982037727    R0
Au    17.5200000000    10.1151760000    49.9609035426    R0
Au    7.3000000000    2.5287940000    49.9329215146    R0
Au    11.6800000000    10.1151760000    49.9112711988    R0
Au    2.9200000000    5.0575880000    49.9735466144    R0
Au    11.6800000000    5.0575880000    49.8782884887    R0
Au    5.8400000000    5.0575880000    50.0077159403    R0
Au    14.6000000000    5.0575880000    49.8887267526    R0
Au    8.7600000000    5.0575880000    49.9910594041    R0
Au    8.760002    1.685863   52.064815849300004 R1
Au   13.140000    9.272246   52.064815849300004 R1
Au    2.920000    1.685863   52.064815849300004 R1
Au   11.680000    1.685863   52.064815849300004 R1
Au    7.300000    9.272246   52.064815849300004 R1
Au   16.059999    9.272246   52.064815849300004 R1
Au    5.840001    1.685863   52.064815849300004 R1
Au   14.600000    1.685863   52.064815849300004 R1
Au   10.220000    9.272246   52.064815849300004 R1
Au   18.980000    9.272246   52.064815849300004 R1
Au   10.220001    4.214657   52.064815849300004 R1
Au   14.600000   11.801040   52.064815849300004 R1
Au    4.380000    4.214657   52.064815849300004 R1
Au   13.140000    4.214657   52.064815849300004 R1
Au    8.760000   11.801040   52.064815849300004 R1
Au   17.520000   11.801040   52.064815849300004 R1
Au    7.300000    4.214657   52.064815849300004 R1
Au   16.059999    4.214657   52.064815849300004 R1
Au   11.680000   11.801040   52.064815849300004 R1
Au   20.440001   11.801040   52.064815849300004 R1
Au   11.680000    6.743451   52.064815849300004 R1
Au    5.840000    6.743451   52.064815849300004 R1
Au   14.600000    6.743451   52.064815849300004 R1
Au    8.760000    6.743451   52.064815849300004 R1
Au   17.520000    6.743451   52.064815849300004 R1
Au    1.460000    0.842931   54.4489858493 R1
Au   10.220000    0.842931   54.4489858493 R1
Au    5.840001    8.429314   54.4489858493 R1
Au   14.600000    8.429314   54.4489858493 R1
Au    4.380000    0.842931   54.4489858493 R1
Au   13.140001    0.842931   54.4489858493 R1
Au    8.760000    8.429314   54.4489858493 R1
Au   17.520000    8.429314   54.4489858493 R1
Au    7.300001    0.842931   54.4489858493 R1
Au   11.680000    8.429314   54.4489858493 R1
Au    2.920000    3.371726   54.4489858493 R1
Au   11.680001    3.371726   54.4489858493 R1
Au    7.300000   10.958109   54.4489858493 R1
Au   16.059998   10.958109   54.4489858493 R1
Au    5.840000    3.371726   54.4489858493 R1
Au   14.600000    3.371726   54.4489858493 R1
Au   10.220000   10.958109   54.4489858493 R1
Au   18.980000   10.958109   54.4489858493 R1
Au    8.760000    3.371726   54.4489858493 R1
Au   13.139999   10.958109   54.4489858493 R1
Au    4.380000    5.900520   54.4489858493 R1
Au   13.140000    5.900520   54.4489858493 R1
Au    7.300000    5.900520   54.4489858493 R1
Au   16.059999    5.900520   54.4489858493 R1
Au   10.220000    5.900520   54.4489858493 R1
Au    0.000000    0.000000   56.833155849300006 R1
Au    8.760000    0.000000   56.833155849300006 R1
Au    4.380000    7.586382   56.833155849300006 R1
Au   13.139999    7.586382   56.833155849300006 R1
Au    2.920000    0.000000   56.833155849300006 R1
Au   11.680000    0.000000   56.833155849300006 R1
Au    7.300000    7.586382   56.833155849300006 R1
Au   16.059999    7.586382   56.833155849300006 R1
Au    5.840000    0.000000   56.833155849300006 R1
Au   10.220000    7.586382   56.833155849300006 R1
Au    1.460000    2.528794   56.833155849300006 R1
Au   10.220000    2.528794   56.833155849300006 R1
Au    5.840000   10.115176   56.833155849300006 R1
Au   14.600000   10.115176   56.833155849300006 R1
Au    4.380000    2.528794   56.833155849300006 R1
Au   13.140000    2.528794   56.833155849300006 R1
Au    8.760000   10.115176   56.833155849300006 R1
Au   17.520000   10.115176   56.833155849300006 R1
Au    7.300000    2.528794   56.833155849300006 R1
Au   11.680000   10.115176   56.833155849300006 R1
Au    2.920000    5.057588   56.833155849300006 R1
Au   11.680000    5.057588   56.833155849300006 R1
Au    5.840000    5.057588   56.833155849300006 R1
Au   14.600000    5.057588   56.833155849300006 R1
Au    8.760000    5.057588   56.833155849300006 R1
Au    8.760002    1.685863   59.2173258493 R2
Au   13.140000    9.272246   59.2173258493 R2
Au    2.920000    1.685863   59.2173258493 R2
Au   11.680000    1.685863   59.2173258493 R2
Au    7.300000    9.272246   59.2173258493 R2
Au   16.059999    9.272246   59.2173258493 R2
Au    5.840001    1.685863   59.2173258493 R2
Au   14.600000    1.685863   59.2173258493 R2
Au   10.220000    9.272246   59.2173258493 R2
Au   18.980000    9.272246   59.2173258493 R2
Au   10.220001    4.214657   59.2173258493 R2
Au   14.600000   11.801040   59.2173258493 R2
Au    4.380000    4.214657   59.2173258493 R2
Au   13.140000    4.214657   59.2173258493 R2
Au    8.760000   11.801040   59.2173258493 R2
Au   17.520000   11.801040   59.2173258493 R2
Au    7.300000    4.214657   59.2173258493 R2
Au   16.059999    4.214657   59.2173258493 R2
Au   11.680000   11.801040   59.2173258493 R2
Au   20.440001   11.801040   59.2173258493 R2
Au   11.680000    6.743451   59.2173258493 R2
Au    5.840000    6.743451   59.2173258493 R2
Au   14.600000    6.743451   59.2173258493 R2
Au    8.760000    6.743451   59.2173258493 R2
Au   17.520000    6.743451   59.2173258493 R2
Au    1.460000    0.842931   61.6014958493 R2
Au   10.220000    0.842931   61.6014958493 R2
Au    5.840001    8.429314   61.6014958493 R2
Au   14.600000    8.429314   61.6014958493 R2
Au    4.380000    0.842931   61.6014958493 R2
Au   13.140001    0.842931   61.6014958493 R2
Au    8.760000    8.429314   61.6014958493 R2
Au   17.520000    8.429314   61.6014958493 R2
Au    7.300001    0.842931   61.6014958493 R2
Au   11.680000    8.429314   61.6014958493 R2
Au    2.920000    3.371726   61.6014958493 R2
Au   11.680001    3.371726   61.6014958493 R2
Au    7.300000   10.958109   61.6014958493 R2
Au   16.059998   10.958109   61.6014958493 R2
Au    5.840000    3.371726   61.6014958493 R2
Au   14.600000    3.371726   61.6014958493 R2
Au   10.220000   10.958109   61.6014958493 R2
Au   18.980000   10.958109   61.6014958493 R2
Au    8.760000    3.371726   61.6014958493 R2
Au   13.139999   10.958109   61.6014958493 R2
Au    4.380000    5.900520   61.6014958493 R2
Au   13.140000    5.900520   61.6014958493 R2
Au    7.300000    5.900520   61.6014958493 R2
Au   16.059999    5.900520   61.6014958493 R2
Au   10.220000    5.900520   61.6014958493 R2
Au    0.000000    0.000000   63.985665849300005 R2
Au    8.760000    0.000000   63.985665849300005 R2
Au    4.380000    7.586382   63.985665849300005 R2
Au   13.139999    7.586382   63.985665849300005 R2
Au    2.920000    0.000000   63.985665849300005 R2
Au   11.680000    0.000000   63.985665849300005 R2
Au    7.300000    7.586382   63.985665849300005 R2
Au   16.059999    7.586382   63.985665849300005 R2
Au    5.840000    0.000000   63.985665849300005 R2
Au   10.220000    7.586382   63.985665849300005 R2
Au    1.460000    2.528794   63.985665849300005 R2
Au   10.220000    2.528794   63.985665849300005 R2
Au    5.840000   10.115176   63.985665849300005 R2
Au   14.600000   10.115176   63.985665849300005 R2
Au    4.380000    2.528794   63.985665849300005 R2
Au   13.140000    2.528794   63.985665849300005 R2
Au    8.760000   10.115176   63.985665849300005 R2
Au   17.520000   10.115176   63.985665849300005 R2
Au    7.300000    2.528794   63.985665849300005 R2
Au   11.680000   10.115176   63.985665849300005 R2
Au    2.920000    5.057588   63.985665849300005 R2
Au   11.680000    5.057588   63.985665849300005 R2
Au    5.840000    5.057588   63.985665849300005 R2
Au   14.600000    5.057588   63.985665849300005 R2
Au    8.760000    5.057588   63.985665849300005 R2
Au    8.760002    1.685863   66.3698358493 R3
Au   13.140000    9.272246   66.3698358493 R3
Au    2.920000    1.685863   66.3698358493 R3
Au   11.680000    1.685863   66.3698358493 R3
Au    7.300000    9.272246   66.3698358493 R3
Au   16.059999    9.272246   66.3698358493 R3
Au    5.840001    1.685863   66.3698358493 R3
Au   14.600000    1.685863   66.3698358493 R3
Au   10.220000    9.272246   66.3698358493 R3