34
	Energy:      26.6806866
C          2.97915        9.70009       -4.12178
C          3.41459       10.79915       -4.86902
C          3.52458       10.70335       -6.25971
C          3.20165        9.50347       -6.91730
C          2.65206        8.50374       -4.76788
C          2.76128        8.40457       -6.15818
C          5.61105        7.10281      -12.28144
H          3.86319       11.56545       -6.82077
S          2.83828        9.82520       -2.34207
H          2.31198        7.65011       -4.19529
H          2.49928        7.47178       -6.64113
H          3.66786       11.72848       -4.37468
C          6.04573        8.19961      -13.04684
C          6.14798        8.09538      -14.43736
C          5.81957        6.89607      -15.07732
C          5.38990        5.79909      -14.32378
C          5.28684        5.89995      -12.93297
H          6.48350        8.94745      -15.01492
H          6.30840        9.13469      -12.56872
H          5.13559        4.86748      -14.81330
H          4.95242        5.03938      -12.36704
S          5.95121        6.76455      -16.85728
C          3.31646        9.40127       -8.41885
C          5.50269        7.21011      -10.77973
C          4.46497        8.26182      -10.36260
C          4.35449        8.34966       -8.83556
H          3.47482        7.98271      -10.78634
H          4.75544        9.25773      -10.76146
H          4.06343        7.35355       -8.43767
H          5.34435        8.62816       -8.41078
H          3.62143       10.38213       -8.84609
H          2.32008        9.14078       -8.83756
H          6.50024        7.47296      -10.36530
H          5.20034        6.23020      -10.34845
