     34
 i =      135, E =      -120.8633779475
  C         3.0287810715        9.7101996386       -4.1021787792
  C         3.6223458755       10.6851037037       -4.9621349247
  C         3.6220176008       10.5173985191       -6.3359723247
  C         3.0323917262        9.3830646857       -6.9348304390
  C         2.4310412177        8.5681717862       -4.7188977946
  C         2.4387280639        8.4164409547       -6.0945130880
  C         5.7739270017        7.2268165882      -12.2680842636
  H         4.0788615465       11.2782566518       -6.9729763117
  S         3.0324136396        9.9026544223       -2.4088156658
  H         1.9658073790        7.8212608879       -4.0756467978
  H         1.9710663324        7.5371741506       -6.5432864682
  H         4.0727355270       11.5663768439       -4.5056569872
  C         6.3658181866        8.1909895396      -13.1124282301
  C         6.3687542992        8.0364386460      -14.4877765212
  C         5.7675284278        6.8938537829      -15.1000747672
  C         5.1765496554        5.9209441709      -14.2360827711
  C         5.1817821211        6.0914914414      -12.8626359478
  H         6.8327784079        8.7814364687      -15.1341413560
  H         6.8358909301        9.0706711617      -12.6670655457
  H         4.7240358995        5.0389861870      -14.6892318934
  H         4.7266642506        5.3322681619      -12.2225202151
  S         5.7566133941        6.6985384991      -16.7930303554
  C         3.0890675098        9.1793424916       -8.4209962263
  C         5.7209180488        7.4340491968      -10.7822496643
  C         4.4430556185        8.1967117520      -10.3573019219
  C         4.3663276125        8.4154044778       -8.8451775163
  H         3.5586990864        7.6356807907      -10.7009107246
  H         4.4136577294        9.1670912709      -10.8792116808
  H         4.3943980415        7.4448807702       -8.3235312926
  H         5.2511590906        8.9753343650       -8.5010732237
  H         3.0666726759       10.1524114763       -8.9359991463
  H         2.2061298186        8.6133328354       -8.7566507581
  H         6.6037239168        8.0023489722      -10.4500883768
  H         5.7459828268        6.4621306747      -10.2650914528
