33
	Energy:      35.6770512
 Au         0.0000000000        0.0000000000        0.0000000000 L3
 Au         2.9200000000        0.0000000000        0.0000000000 L3
 Au         5.8400000000        0.0000000000        0.0000000000 L3
 Au         1.4600000000        2.5287941680        0.0000000000 L3
 Au         4.3800000000        2.5287941680        0.0000000000 L3
 Au         7.3000000000        2.5287941680        0.0000000000 L3
 Au         2.9200000000        5.0575883360        0.0000000000 L3
 Au         5.8400000000        5.0575883360        0.0000000000 L3
 Au         8.7600000000        5.0575883360        0.0000000000 L3
 Au         1.4600000000        0.8429312920        2.3841700720 L3
 Au         4.3800000000        0.8429312920        2.3841700720 L3
 Au         7.3000000000        0.8429312920        2.3841700720 L3
 Au         2.9200000000        3.3717254600        2.3841700720 L3
 Au         5.8400000000        3.3717254600        2.3841700720 L3
 Au         8.7600000000        3.3717254600        2.3841700720 L3
 Au         4.3800000000        5.9005196280        2.3841700720 L3
 Au         7.3000000000        5.9005196280        2.3841700720 L3
 Au        10.2200000000        5.9005196280        2.3841700720 L3
 Au         0.0000000000        1.6858628760        4.7683401440 L3
 Au         2.9200000000        1.6858628760        4.7683401440 L3
 Au         5.8400000000        1.6858628760        4.7683401440 L3
 Au         1.4600000000        4.2146570440        4.7683401440 L3
 Au         4.3800000000        4.2146570440        4.7683401440 L3
 Au         7.3000000000        4.2146570440        4.7683401440 L3
 Au         2.9200000000        6.7434512120        4.7683401440 L3
 Au         5.8400000000        6.7434512120        4.7683401440 L3
 Au         8.7600000000        6.7434512120        4.7683401440 L3
  C         6.0433004559        3.5034337130       18.6606076069
  C         5.0975213782        4.2350892226       17.8961951519
  C         4.9173091768        3.9940647676       16.5526768760
  C         5.6817391977        2.9858954013       15.8672081193
  C         6.7714370753        2.4745653237       18.0110606635
  C         6.6107887298        2.2310944728       16.6665655636
  C         5.1150951366        3.3733315281       12.0978191507
  H         4.1921208905        4.5883683054       15.9964381179
  H         7.4889056186        1.8902836007       18.5905869994
  H         7.2076199380        1.4599604266       16.1770573558
  H         4.5151976198        5.0148126059       18.3906940529
  C         5.2332335414        4.5730608464       11.3844121538
  C         5.6372288714        4.5799194251       10.0473098572
  C         5.9542546653        3.3844728950        9.3869319757
  C         5.8384705973        2.1803937811       10.1034570441
  C         5.4229145237        2.1758847749       11.4327944247
  H         5.7131979669        5.5267174647        9.5093029273
  H         5.0012771871        5.5192140265       11.8784920567
  H         6.0649786837        1.2362152640        9.6041647204
  H         5.3318258331        1.2225518802       11.9571520443
  C         6.2798162945        3.8180351098       20.0902170962
  S         4.9573337499        2.8892982032       21.0383202372
  H         6.1619389350        4.8852157327       20.3170843692
  H         7.2638323052        3.4783100727       20.4378229588
  C         5.5701456807        2.7191215403       14.5054430893
  C         6.3838315252        3.3809228296        7.9494915957
  S         4.9501870088        2.7982284246        6.9075980398
  H         7.2120700454        2.6830065445        7.7700209477
  H         6.6876832368        4.3798960148        7.6103927507
  C         4.6353321641        3.3717311346       13.5388532994
  H         6.2139226345        1.9328762640       14.1008761297
  H         4.4090427168        4.4034251196       13.8503459953
  H         3.6614204294        2.8406437001       13.5811601353
 Au         8.7600000000        6.7434512120       35.9028394760 R0
 Au         5.8400000000        6.7434512120       35.9028394760 R0
 Au         2.9200000000        6.7434512120       35.9028394760 R0
 Au         7.3000000000        4.2146570440       35.9028394760 R0
 Au         4.3800000000        4.2146570440       35.9028394760 R0
 Au         1.4600000000        4.2146570440       35.9028394760 R0
 Au         5.8400000000        1.6858628760       35.9028394760 R0
 Au         2.9200000000        1.6858628760       35.9028394760 R0
 Au         0.0000000000        1.6858628760       35.9028394760 R0
 Au        10.2200000000        5.9005196280       38.2870095480 R0
 Au         7.3000000000        5.9005196280       38.2870095480 R0
 Au         4.3800000000        5.9005196280       38.2870095480 R0
 Au         8.7600000000        3.3717254600       38.2870095480 R0
 Au         5.8400000000        3.3717254600       38.2870095480 R0
 Au         2.9200000000        3.3717254600       38.2870095480 R0
 Au         7.3000000000        0.8429312920       38.2870095480 R0
 Au         4.3800000000        0.8429312920       38.2870095480 R0
 Au         1.4600000000        0.8429312920       38.2870095480 R0
 Au         8.7600000000        5.0575883360       40.6711796200 R0
 Au         5.8400000000        5.0575883360       40.6711796200 R0
 Au         2.9200000000        5.0575883360       40.6711796200 R0
 Au         7.3000000000        2.5287941680       40.6711796200 R0
 Au         4.3800000000        2.5287941680       40.6711796200 R0
 Au         1.4600000000        2.5287941680       40.6711796200 R0
 Au         5.8400000000        0.0000000000       40.6711796200 R0
 Au         2.9200000000        0.0000000000       40.6711796200 R0
 Au         0.0000000000        0.0000000000       40.6711796200 R0
